V -t * -v 1.0a5 -a 0
A -t * -n 1 -p 0 -o 0x7fffffff -c 30 -a 1
A -t * -h 1 -m 1073741823 -s 0
n -t * -a 0 -s 0 -S UP -v circle -c black -i black
n -t * -a 1 -s 1 -S UP -v circle -c black -i black
n -t * -a 2 -s 2 -S UP -v circle -c black -i black
n -t * -a 3 -s 3 -S UP -v circle -c black -i black
l -t * -s 0 -d 2 -S UP -r 2000000 -D 0.01 -c black
l -t * -s 1 -d 2 -S UP -r 2000000 -D 0.01 -c black
l -t * -s 2 -d 3 -S UP -r 900000 -D 0.01 -c black
+ -t 0.6 -s 1 -d 2 -p tcp -e 40 -c 0 -i 0 -a 0 -x {1.0 3.1 0 ------- null}
- -t 0.6 -s 1 -d 2 -p tcp -e 40 -c 0 -i 0 -a 0 -x {1.0 3.1 0 ------- null}
h -t 0.6 -s 1 -d 2 -p tcp -e 40 -c 0 -i 0 -a 0 -x {1.0 3.1 -1 ------- null}
r -t 0.61016 -s 1 -d 2 -p tcp -e 40 -c 0 -i 0 -a 0 -x {1.0 3.1 0 ------- null}
+ -t 0.61016 -s 2 -d 3 -p tcp -e 40 -c 0 -i 0 -a 0 -x {1.0 3.1 0 ------- null}
- -t 0.61016 -s 2 -d 3 -p tcp -e 40 -c 0 -i 0 -a 0 -x {1.0 3.1 0 ------- null}
h -t 0.61016 -s 2 -d 3 -p tcp -e 40 -c 0 -i 0 -a 0 -x {1.0 3.1 -1 ------- null}
r -t 0.620515555555555 -s 2 -d 3 -p tcp -e 40 -c 0 -i 0 -a 0 -x {1.0 3.1 0 ------- null}
+ -t 0.620515555555555 -s 3 -d 2 -p ack -e 40 -c 0 -i 1 -a 0 -x {3.1 1.0 0 ------- null}
- -t 0.620515555555555 -s 3 -d 2 -p ack -e 40 -c 0 -i 1 -a 0 -x {3.1 1.0 0 ------- null}
h -t 0.620515555555555 -s 3 -d 2 -p ack -e 40 -c 0 -i 1 -a 0 -x {3.1 1.0 -1 ------- null}
r -t 0.630871111111111 -s 3 -d 2 -p ack -e 40 -c 0 -i 1 -a 0 -x {3.1 1.0 0 ------- null}
+ -t 0.630871111111111 -s 2 -d 1 -p ack -e 40 -c 0 -i 1 -a 0 -x {3.1 1.0 0 ------- null}
- -t 0.630871111111111 -s 2 -d 1 -p ack -e 40 -c 0 -i 1 -a 0 -x {3.1 1.0 0 ------- null}
h -t 0.630871111111111 -s 2 -d 1 -p ack -e 40 -c 0 -i 1 -a 0 -x {3.1 1.0 -1 ------- null}
r -t 0.641031111111111 -s 2 -d 1 -p ack -e 40 -c 0 -i 1 -a 0 -x {3.1 1.0 0 ------- null}
+ -t 0.641031111111111 -s 1 -d 2 -p tcp -e 1040 -c 0 -i 2 -a 0 -x {1.0 3.1 1 ------- null}
- -t 0.641031111111111 -s 1 -d 2 -p tcp -e 1040 -c 0 -i 2 -a 0 -x {1.0 3.1 1 ------- null}
h -t 0.641031111111111 -s 1 -d 2 -p tcp -e 1040 -c 0 -i 2 -a 0 -x {1.0 3.1 -1 ------- null}
+ -t 0.641031111111111 -s 1 -d 2 -p tcp -e 1040 -c 0 -i 3 -a 0 -x {1.0 3.1 2 ------- null}
- -t 0.645191111111111 -s 1 -d 2 -p tcp -e 1040 -c 0 -i 3 -a 0 -x {1.0 3.1 2 ------- null}
h -t 0.645191111111111 -s 1 -d 2 -p tcp -e 1040 -c 0 -i 3 -a 0 -x {1.0 3.1 -1 ------- null}
r -t 0.655191111111111 -s 1 -d 2 -p tcp -e 1040 -c 0 -i 2 -a 0 -x {1.0 3.1 1 ------- null}
+ -t 0.655191111111111 -s 2 -d 3 -p tcp -e 1040 -c 0 -i 2 -a 0 -x {1.0 3.1 1 ------- null}
- -t 0.655191111111111 -s 2 -d 3 -p tcp -e 1040 -c 0 -i 2 -a 0 -x {1.0 3.1 1 ------- null}
h -t 0.655191111111111 -s 2 -d 3 -p tcp -e 1040 -c 0 -i 2 -a 0 -x {1.0 3.1 -1 ------- null}
r -t 0.659351111111111 -s 1 -d 2 -p tcp -e 1040 -c 0 -i 3 -a 0 -x {1.0 3.1 2 ------- null}
+ -t 0.659351111111111 -s 2 -d 3 -p tcp -e 1040 -c 0 -i 3 -a 0 -x {1.0 3.1 2 ------- null}
- -t 0.664435555555555 -s 2 -d 3 -p tcp -e 1040 -c 0 -i 3 -a 0 -x {1.0 3.1 2 ------- null}
h -t 0.664435555555555 -s 2 -d 3 -p tcp -e 1040 -c 0 -i 3 -a 0 -x {1.0 3.1 -1 ------- null}
r -t 0.674435555555555 -s 2 -d 3 -p tcp -e 1040 -c 0 -i 2 -a 0 -x {1.0 3.1 1 ------- null}
+ -t 0.674435555555555 -s 3 -d 2 -p ack -e 40 -c 0 -i 4 -a 0 -x {3.1 1.0 1 ------- null}
- -t 0.674435555555555 -s 3 -d 2 -p ack -e 40 -c 0 -i 4 -a 0 -x {3.1 1.0 1 ------- null}
h -t 0.674435555555555 -s 3 -d 2 -p ack -e 40 -c 0 -i 4 -a 0 -x {3.1 1.0 -1 ------- null}
r -t 0.68368 -s 2 -d 3 -p tcp -e 1040 -c 0 -i 3 -a 0 -x {1.0 3.1 2 ------- null}
+ -t 0.68368 -s 3 -d 2 -p ack -e 40 -c 0 -i 5 -a 0 -x {3.1 1.0 2 ------- null}
- -t 0.68368 -s 3 -d 2 -p ack -e 40 -c 0 -i 5 -a 0 -x {3.1 1.0 2 ------- null}
h -t 0.68368 -s 3 -d 2 -p ack -e 40 -c 0 -i 5 -a 0 -x {3.1 1.0 -1 ------- null}
r -t 0.684791111111111 -s 3 -d 2 -p ack -e 40 -c 0 -i 4 -a 0 -x {3.1 1.0 1 ------- null}
+ -t 0.684791111111111 -s 2 -d 1 -p ack -e 40 -c 0 -i 4 -a 0 -x {3.1 1.0 1 ------- null}
- -t 0.684791111111111 -s 2 -d 1 -p ack -e 40 -c 0 -i 4 -a 0 -x {3.1 1.0 1 ------- null}
h -t 0.684791111111111 -s 2 -d 1 -p ack -e 40 -c 0 -i 4 -a 0 -x {3.1 1.0 -1 ------- null}
r -t 0.694035555555555 -s 3 -d 2 -p ack -e 40 -c 0 -i 5 -a 0 -x {3.1 1.0 2 ------- null}
+ -t 0.694035555555555 -s 2 -d 1 -p ack -e 40 -c 0 -i 5 -a 0 -x {3.1 1.0 2 ------- null}
- -t 0.694035555555555 -s 2 -d 1 -p ack -e 40 -c 0 -i 5 -a 0 -x {3.1 1.0 2 ------- null}
h -t 0.694035555555555 -s 2 -d 1 -p ack -e 40 -c 0 -i 5 -a 0 -x {3.1 1.0 -1 ------- null}
r -t 0.694951111111111 -s 2 -d 1 -p ack -e 40 -c 0 -i 4 -a 0 -x {3.1 1.0 1 ------- null}
+ -t 0.694951111111111 -s 1 -d 2 -p tcp -e 1040 -c 0 -i 6 -a 0 -x {1.0 3.1 3 ------- null}
- -t 0.694951111111111 -s 1 -d 2 -p tcp -e 1040 -c 0 -i 6 -a 0 -x {1.0 3.1 3 ------- null}
h -t 0.694951111111111 -s 1 -d 2 -p tcp -e 1040 -c 0 -i 6 -a 0 -x {1.0 3.1 -1 ------- null}
+ -t 0.694951111111111 -s 1 -d 2 -p tcp -e 1040 -c 0 -i 7 -a 0 -x {1.0 3.1 4 ------- null}
- -t 0.699111111111111 -s 1 -d 2 -p tcp -e 1040 -c 0 -i 7 -a 0 -x {1.0 3.1 4 ------- null}
h -t 0.699111111111111 -s 1 -d 2 -p tcp -e 1040 -c 0 -i 7 -a 0 -x {1.0 3.1 -1 ------- null}
r -t 0.704195555555555 -s 2 -d 1 -p ack -e 40 -c 0 -i 5 -a 0 -x {3.1 1.0 2 ------- null}
+ -t 0.704195555555555 -s 1 -d 2 -p tcp -e 1040 -c 0 -i 8 -a 0 -x {1.0 3.1 5 ------- null}
- -t 0.704195555555555 -s 1 -d 2 -p tcp -e 1040 -c 0 -i 8 -a 0 -x {1.0 3.1 5 ------- null}
h -t 0.704195555555555 -s 1 -d 2 -p tcp -e 1040 -c 0 -i 8 -a 0 -x {1.0 3.1 -1 ------- null}
+ -t 0.704195555555555 -s 1 -d 2 -p tcp -e 1040 -c 0 -i 9 -a 0 -x {1.0 3.1 6 ------- null}
+ -t 0.707790344 -s 0 -d 2 -p tcp -e 40 -c 0 -i 10 -a 0 -x {0.0 3.0 0 ------- null}
- -t 0.707790344 -s 0 -d 2 -p tcp -e 40 -c 0 -i 10 -a 0 -x {0.0 3.0 0 ------- null}
h -t 0.707790344 -s 0 -d 2 -p tcp -e 40 -c 0 -i 10 -a 0 -x {0.0 3.0 -1 ------- null}
- -t 0.708355555555555 -s 1 -d 2 -p tcp -e 1040 -c 0 -i 9 -a 0 -x {1.0 3.1 6 ------- null}
h -t 0.708355555555555 -s 1 -d 2 -p tcp -e 1040 -c 0 -i 9 -a 0 -x {1.0 3.1 -1 ------- null}
r -t 0.709111111111111 -s 1 -d 2 -p tcp -e 1040 -c 0 -i 6 -a 0 -x {1.0 3.1 3 ------- null}
+ -t 0.709111111111111 -s 2 -d 3 -p tcp -e 1040 -c 0 -i 6 -a 0 -x {1.0 3.1 3 ------- null}
- -t 0.709111111111111 -s 2 -d 3 -p tcp -e 1040 -c 0 -i 6 -a 0 -x {1.0 3.1 3 ------- null}
h -t 0.709111111111111 -s 2 -d 3 -p tcp -e 1040 -c 0 -i 6 -a 0 -x {1.0 3.1 -1 ------- null}
r -t 0.713271111111111 -s 1 -d 2 -p tcp -e 1040 -c 0 -i 7 -a 0 -x {1.0 3.1 4 ------- null}
+ -t 0.713271111111111 -s 2 -d 3 -p tcp -e 1040 -c 0 -i 7 -a 0 -x {1.0 3.1 4 ------- null}
r -t 0.717950344 -s 0 -d 2 -p tcp -e 40 -c 0 -i 10 -a 0 -x {0.0 3.0 0 ------- null}
+ -t 0.717950344 -s 2 -d 3 -p tcp -e 40 -c 0 -i 10 -a 0 -x {0.0 3.0 0 ------- null}
- -t 0.718355555555555 -s 2 -d 3 -p tcp -e 1040 -c 0 -i 7 -a 0 -x {1.0 3.1 4 ------- null}
h -t 0.718355555555555 -s 2 -d 3 -p tcp -e 1040 -c 0 -i 7 -a 0 -x {1.0 3.1 -1 ------- null}
r -t 0.718355555555555 -s 1 -d 2 -p tcp -e 1040 -c 0 -i 8 -a 0 -x {1.0 3.1 5 ------- null}
+ -t 0.718355555555555 -s 2 -d 3 -p tcp -e 1040 -c 0 -i 8 -a 0 -x {1.0 3.1 5 ------- null}
r -t 0.722515555555555 -s 1 -d 2 -p tcp -e 1040 -c 0 -i 9 -a 0 -x {1.0 3.1 6 ------- null}
+ -t 0.722515555555555 -s 2 -d 3 -p tcp -e 1040 -c 0 -i 9 -a 0 -x {1.0 3.1 6 ------- null}
- -t 0.7276 -s 2 -d 3 -p tcp -e 40 -c 0 -i 10 -a 0 -x {0.0 3.0 0 ------- null}
h -t 0.7276 -s 2 -d 3 -p tcp -e 40 -c 0 -i 10 -a 0 -x {0.0 3.0 -1 ------- null}
- -t 0.727955555555555 -s 2 -d 3 -p tcp -e 1040 -c 0 -i 8 -a 0 -x {1.0 3.1 5 ------- null}
h -t 0.727955555555555 -s 2 -d 3 -p tcp -e 1040 -c 0 -i 8 -a 0 -x {1.0 3.1 -1 ------- null}
r -t 0.728355555555555 -s 2 -d 3 -p tcp -e 1040 -c 0 -i 6 -a 0 -x {1.0 3.1 3 ------- null}
+ -t 0.728355555555555 -s 3 -d 2 -p ack -e 40 -c 0 -i 11 -a 0 -x {3.1 1.0 3 ------- null}
- -t 0.728355555555555 -s 3 -d 2 -p ack -e 40 -c 0 -i 11 -a 0 -x {3.1 1.0 3 ------- null}
h -t 0.728355555555555 -s 3 -d 2 -p ack -e 40 -c 0 -i 11 -a 0 -x {3.1 1.0 -1 ------- null}
- -t 0.7372 -s 2 -d 3 -p tcp -e 1040 -c 0 -i 9 -a 0 -x {1.0 3.1 6 ------- null}
h -t 0.7372 -s 2 -d 3 -p tcp -e 1040 -c 0 -i 9 -a 0 -x {1.0 3.1 -1 ------- null}
r -t 0.7376 -s 2 -d 3 -p tcp -e 1040 -c 0 -i 7 -a 0 -x {1.0 3.1 4 ------- null}
+ -t 0.7376 -s 3 -d 2 -p ack -e 40 -c 0 -i 12 -a 0 -x {3.1 1.0 4 ------- null}
- -t 0.7376 -s 3 -d 2 -p ack -e 40 -c 0 -i 12 -a 0 -x {3.1 1.0 4 ------- null}
h -t 0.7376 -s 3 -d 2 -p ack -e 40 -c 0 -i 12 -a 0 -x {3.1 1.0 -1 ------- null}
r -t 0.737955555555555 -s 2 -d 3 -p tcp -e 40 -c 0 -i 10 -a 0 -x {0.0 3.0 0 ------- null}
+ -t 0.737955555555555 -s 3 -d 2 -p ack -e 40 -c 0 -i 13 -a 0 -x {3.0 0.0 0 ------- null}
- -t 0.737955555555555 -s 3 -d 2 -p ack -e 40 -c 0 -i 13 -a 0 -x {3.0 0.0 0 ------- null}
h -t 0.737955555555555 -s 3 -d 2 -p ack -e 40 -c 0 -i 13 -a 0 -x {3.0 0.0 -1 ------- null}
r -t 0.738711111111111 -s 3 -d 2 -p ack -e 40 -c 0 -i 11 -a 0 -x {3.1 1.0 3 ------- null}
+ -t 0.738711111111111 -s 2 -d 1 -p ack -e 40 -c 0 -i 11 -a 0 -x {3.1 1.0 3 ------- null}
- -t 0.738711111111111 -s 2 -d 1 -p ack -e 40 -c 0 -i 11 -a 0 -x {3.1 1.0 3 ------- null}
h -t 0.738711111111111 -s 2 -d 1 -p ack -e 40 -c 0 -i 11 -a 0 -x {3.1 1.0 -1 ------- null}
r -t 0.7472 -s 2 -d 3 -p tcp -e 1040 -c 0 -i 8 -a 0 -x {1.0 3.1 5 ------- null}
+ -t 0.7472 -s 3 -d 2 -p ack -e 40 -c 0 -i 14 -a 0 -x {3.1 1.0 5 ------- null}
- -t 0.7472 -s 3 -d 2 -p ack -e 40 -c 0 -i 14 -a 0 -x {3.1 1.0 5 ------- null}
h -t 0.7472 -s 3 -d 2 -p ack -e 40 -c 0 -i 14 -a 0 -x {3.1 1.0 -1 ------- null}
r -t 0.747955555555555 -s 3 -d 2 -p ack -e 40 -c 0 -i 12 -a 0 -x {3.1 1.0 4 ------- null}
+ -t 0.747955555555555 -s 2 -d 1 -p ack -e 40 -c 0 -i 12 -a 0 -x {3.1 1.0 4 ------- null}
- -t 0.747955555555555 -s 2 -d 1 -p ack -e 40 -c 0 -i 12 -a 0 -x {3.1 1.0 4 ------- null}
h -t 0.747955555555555 -s 2 -d 1 -p ack -e 40 -c 0 -i 12 -a 0 -x {3.1 1.0 -1 ------- null}
r -t 0.748311111111111 -s 3 -d 2 -p ack -e 40 -c 0 -i 13 -a 0 -x {3.0 0.0 0 ------- null}
+ -t 0.748311111111111 -s 2 -d 0 -p ack -e 40 -c 0 -i 13 -a 0 -x {3.0 0.0 0 ------- null}
- -t 0.748311111111111 -s 2 -d 0 -p ack -e 40 -c 0 -i 13 -a 0 -x {3.0 0.0 0 ------- null}
h -t 0.748311111111111 -s 2 -d 0 -p ack -e 40 -c 0 -i 13 -a 0 -x {3.0 0.0 -1 ------- null}
r -t 0.748871111111111 -s 2 -d 1 -p ack -e 40 -c 0 -i 11 -a 0 -x {3.1 1.0 3 ------- null}
+ -t 0.748871111111111 -s 1 -d 2 -p tcp -e 1040 -c 0 -i 15 -a 0 -x {1.0 3.1 7 ------- null}
- -t 0.748871111111111 -s 1 -d 2 -p tcp -e 1040 -c 0 -i 15 -a 0 -x {1.0 3.1 7 ------- null}
h -t 0.748871111111111 -s 1 -d 2 -p tcp -e 1040 -c 0 -i 15 -a 0 -x {1.0 3.1 -1 ------- null}
+ -t 0.748871111111111 -s 1 -d 2 -p tcp -e 1040 -c 0 -i 16 -a 0 -x {1.0 3.1 8 ------- null}
- -t 0.753031111111111 -s 1 -d 2 -p tcp -e 1040 -c 0 -i 16 -a 0 -x {1.0 3.1 8 ------- null}
h -t 0.753031111111111 -s 1 -d 2 -p tcp -e 1040 -c 0 -i 16 -a 0 -x {1.0 3.1 -1 ------- null}
r -t 0.756444444444444 -s 2 -d 3 -p tcp -e 1040 -c 0 -i 9 -a 0 -x {1.0 3.1 6 ------- null}
+ -t 0.756444444444444 -s 3 -d 2 -p ack -e 40 -c 0 -i 17 -a 0 -x {3.1 1.0 6 ------- null}
- -t 0.756444444444444 -s 3 -d 2 -p ack -e 40 -c 0 -i 17 -a 0 -x {3.1 1.0 6 ------- null}
h -t 0.756444444444444 -s 3 -d 2 -p ack -e 40 -c 0 -i 17 -a 0 -x {3.1 1.0 -1 ------- null}
r -t 0.757555555555555 -s 3 -d 2 -p ack -e 40 -c 0 -i 14 -a 0 -x {3.1 1.0 5 ------- null}
+ -t 0.757555555555555 -s 2 -d 1 -p ack -e 40 -c 0 -i 14 -a 0 -x {3.1 1.0 5 ------- null}
- -t 0.757555555555555 -s 2 -d 1 -p ack -e 40 -c 0 -i 14 -a 0 -x {3.1 1.0 5 ------- null}
h -t 0.757555555555555 -s 2 -d 1 -p ack -e 40 -c 0 -i 14 -a 0 -x {3.1 1.0 -1 ------- null}
r -t 0.758115555555555 -s 2 -d 1 -p ack -e 40 -c 0 -i 12 -a 0 -x {3.1 1.0 4 ------- null}
+ -t 0.758115555555555 -s 1 -d 2 -p tcp -e 1040 -c 0 -i 18 -a 0 -x {1.0 3.1 9 ------- null}
- -t 0.758115555555555 -s 1 -d 2 -p tcp -e 1040 -c 0 -i 18 -a 0 -x {1.0 3.1 9 ------- null}
h -t 0.758115555555555 -s 1 -d 2 -p tcp -e 1040 -c 0 -i 18 -a 0 -x {1.0 3.1 -1 ------- null}
+ -t 0.758115555555555 -s 1 -d 2 -p tcp -e 1040 -c 0 -i 19 -a 0 -x {1.0 3.1 10 ------- null}
r -t 0.758471111111111 -s 2 -d 0 -p ack -e 40 -c 0 -i 13 -a 0 -x {3.0 0.0 0 ------- null}
+ -t 0.758471111111111 -s 0 -d 2 -p tcp -e 1040 -c 0 -i 20 -a 0 -x {0.0 3.0 1 ------- null}
- -t 0.758471111111111 -s 0 -d 2 -p tcp -e 1040 -c 0 -i 20 -a 0 -x {0.0 3.0 1 ------- null}
h -t 0.758471111111111 -s 0 -d 2 -p tcp -e 1040 -c 0 -i 20 -a 0 -x {0.0 3.0 -1 ------- null}
- -t 0.762275555555555 -s 1 -d 2 -p tcp -e 1040 -c 0 -i 19 -a 0 -x {1.0 3.1 10 ------- null}
h -t 0.762275555555555 -s 1 -d 2 -p tcp -e 1040 -c 0 -i 19 -a 0 -x {1.0 3.1 -1 ------- null}
r -t 0.763031111111111 -s 1 -d 2 -p tcp -e 1040 -c 0 -i 15 -a 0 -x {1.0 3.1 7 ------- null}
+ -t 0.763031111111111 -s 2 -d 3 -p tcp -e 1040 -c 0 -i 15 -a 0 -x {1.0 3.1 7 ------- null}
- -t 0.763031111111111 -s 2 -d 3 -p tcp -e 1040 -c 0 -i 15 -a 0 -x {1.0 3.1 7 ------- null}
h -t 0.763031111111111 -s 2 -d 3 -p tcp -e 1040 -c 0 -i 15 -a 0 -x {1.0 3.1 -1 ------- null}
r -t 0.7668 -s 3 -d 2 -p ack -e 40 -c 0 -i 17 -a 0 -x {3.1 1.0 6 ------- null}
+ -t 0.7668 -s 2 -d 1 -p ack -e 40 -c 0 -i 17 -a 0 -x {3.1 1.0 6 ------- null}
- -t 0.7668 -s 2 -d 1 -p ack -e 40 -c 0 -i 17 -a 0 -x {3.1 1.0 6 ------- null}
h -t 0.7668 -s 2 -d 1 -p ack -e 40 -c 0 -i 17 -a 0 -x {3.1 1.0 -1 ------- null}
r -t 0.767191111111111 -s 1 -d 2 -p tcp -e 1040 -c 0 -i 16 -a 0 -x {1.0 3.1 8 ------- null}
+ -t 0.767191111111111 -s 2 -d 3 -p tcp -e 1040 -c 0 -i 16 -a 0 -x {1.0 3.1 8 ------- null}
r -t 0.767715555555555 -s 2 -d 1 -p ack -e 40 -c 0 -i 14 -a 0 -x {3.1 1.0 5 ------- null}
+ -t 0.767715555555555 -s 1 -d 2 -p tcp -e 1040 -c 0 -i 21 -a 0 -x {1.0 3.1 11 ------- null}
- -t 0.767715555555555 -s 1 -d 2 -p tcp -e 1040 -c 0 -i 21 -a 0 -x {1.0 3.1 11 ------- null}
h -t 0.767715555555555 -s 1 -d 2 -p tcp -e 1040 -c 0 -i 21 -a 0 -x {1.0 3.1 -1 ------- null}
+ -t 0.767715555555555 -s 1 -d 2 -p tcp -e 1040 -c 0 -i 22 -a 0 -x {1.0 3.1 12 ------- null}
- -t 0.771875555555555 -s 1 -d 2 -p tcp -e 1040 -c 0 -i 22 -a 0 -x {1.0 3.1 12 ------- null}
h -t 0.771875555555555 -s 1 -d 2 -p tcp -e 1040 -c 0 -i 22 -a 0 -x {1.0 3.1 -1 ------- null}
r -t 0.772275555555555 -s 1 -d 2 -p tcp -e 1040 -c 0 -i 18 -a 0 -x {1.0 3.1 9 ------- null}
+ -t 0.772275555555555 -s 2 -d 3 -p tcp -e 1040 -c 0 -i 18 -a 0 -x {1.0 3.1 9 ------- null}
- -t 0.772275555555555 -s 2 -d 3 -p tcp -e 1040 -c 0 -i 16 -a 0 -x {1.0 3.1 8 ------- null}
h -t 0.772275555555555 -s 2 -d 3 -p tcp -e 1040 -c 0 -i 16 -a 0 -x {1.0 3.1 -1 ------- null}
r -t 0.772631111111111 -s 0 -d 2 -p tcp -e 1040 -c 0 -i 20 -a 0 -x {0.0 3.0 1 ------- null}
+ -t 0.772631111111111 -s 2 -d 3 -p tcp -e 1040 -c 0 -i 20 -a 0 -x {0.0 3.0 1 ------- null}
r -t 0.776435555555555 -s 1 -d 2 -p tcp -e 1040 -c 0 -i 19 -a 0 -x {1.0 3.1 10 ------- null}
+ -t 0.776435555555555 -s 2 -d 3 -p tcp -e 1040 -c 0 -i 19 -a 0 -x {1.0 3.1 10 ------- null}
r -t 0.77696 -s 2 -d 1 -p ack -e 40 -c 0 -i 17 -a 0 -x {3.1 1.0 6 ------- null}
+ -t 0.77696 -s 1 -d 2 -p tcp -e 1040 -c 0 -i 23 -a 0 -x {1.0 3.1 13 ------- null}
- -t 0.77696 -s 1 -d 2 -p tcp -e 1040 -c 0 -i 23 -a 0 -x {1.0 3.1 13 ------- null}
h -t 0.77696 -s 1 -d 2 -p tcp -e 1040 -c 0 -i 23 -a 0 -x {1.0 3.1 -1 ------- null}
+ -t 0.77696 -s 1 -d 2 -p tcp -e 1040 -c 0 -i 24 -a 0 -x {1.0 3.1 14 ------- null}
- -t 0.78112 -s 1 -d 2 -p tcp -e 1040 -c 0 -i 24 -a 0 -x {1.0 3.1 14 ------- null}
h -t 0.78112 -s 1 -d 2 -p tcp -e 1040 -c 0 -i 24 -a 0 -x {1.0 3.1 -1 ------- null}
- -t 0.78152 -s 2 -d 3 -p tcp -e 1040 -c 0 -i 18 -a 0 -x {1.0 3.1 9 ------- null}
h -t 0.78152 -s 2 -d 3 -p tcp -e 1040 -c 0 -i 18 -a 0 -x {1.0 3.1 -1 ------- null}
r -t 0.781875555555555 -s 1 -d 2 -p tcp -e 1040 -c 0 -i 21 -a 0 -x {1.0 3.1 11 ------- null}
+ -t 0.781875555555555 -s 2 -d 3 -p tcp -e 1040 -c 0 -i 21 -a 0 -x {1.0 3.1 11 ------- null}
r -t 0.782275555555555 -s 2 -d 3 -p tcp -e 1040 -c 0 -i 15 -a 0 -x {1.0 3.1 7 ------- null}
+ -t 0.782275555555555 -s 3 -d 2 -p ack -e 40 -c 0 -i 25 -a 0 -x {3.1 1.0 7 ------- null}
- -t 0.782275555555555 -s 3 -d 2 -p ack -e 40 -c 0 -i 25 -a 0 -x {3.1 1.0 7 ------- null}
h -t 0.782275555555555 -s 3 -d 2 -p ack -e 40 -c 0 -i 25 -a 0 -x {3.1 1.0 -1 ------- null}
r -t 0.786035555555555 -s 1 -d 2 -p tcp -e 1040 -c 0 -i 22 -a 0 -x {1.0 3.1 12 ------- null}
+ -t 0.786035555555555 -s 2 -d 3 -p tcp -e 1040 -c 0 -i 22 -a 0 -x {1.0 3.1 12 ------- null}
- -t 0.790764444444444 -s 2 -d 3 -p tcp -e 1040 -c 0 -i 20 -a 0 -x {0.0 3.0 1 ------- null}
h -t 0.790764444444444 -s 2 -d 3 -p tcp -e 1040 -c 0 -i 20 -a 0 -x {0.0 3.0 -1 ------- null}
r -t 0.791119999999999 -s 1 -d 2 -p tcp -e 1040 -c 0 -i 23 -a 0 -x {1.0 3.1 13 ------- null}
+ -t 0.791119999999999 -s 2 -d 3 -p tcp -e 1040 -c 0 -i 23 -a 0 -x {1.0 3.1 13 ------- null}
r -t 0.79152 -s 2 -d 3 -p tcp -e 1040 -c 0 -i 16 -a 0 -x {1.0 3.1 8 ------- null}
+ -t 0.79152 -s 3 -d 2 -p ack -e 40 -c 0 -i 26 -a 0 -x {3.1 1.0 8 ------- null}
- -t 0.79152 -s 3 -d 2 -p ack -e 40 -c 0 -i 26 -a 0 -x {3.1 1.0 8 ------- null}
h -t 0.79152 -s 3 -d 2 -p ack -e 40 -c 0 -i 26 -a 0 -x {3.1 1.0 -1 ------- null}
r -t 0.792631111111111 -s 3 -d 2 -p ack -e 40 -c 0 -i 25 -a 0 -x {3.1 1.0 7 ------- null}
+ -t 0.792631111111111 -s 2 -d 1 -p ack -e 40 -c 0 -i 25 -a 0 -x {3.1 1.0 7 ------- null}
- -t 0.792631111111111 -s 2 -d 1 -p ack -e 40 -c 0 -i 25 -a 0 -x {3.1 1.0 7 ------- null}
h -t 0.792631111111111 -s 2 -d 1 -p ack -e 40 -c 0 -i 25 -a 0 -x {3.1 1.0 -1 ------- null}
r -t 0.79528 -s 1 -d 2 -p tcp -e 1040 -c 0 -i 24 -a 0 -x {1.0 3.1 14 ------- null}
+ -t 0.79528 -s 2 -d 3 -p tcp -e 1040 -c 0 -i 24 -a 0 -x {1.0 3.1 14 ------- null}
- -t 0.800008888888888 -s 2 -d 3 -p tcp -e 1040 -c 0 -i 19 -a 0 -x {1.0 3.1 10 ------- null}
h -t 0.800008888888888 -s 2 -d 3 -p tcp -e 1040 -c 0 -i 19 -a 0 -x {1.0 3.1 -1 ------- null}
r -t 0.800764444444444 -s 2 -d 3 -p tcp -e 1040 -c 0 -i 18 -a 0 -x {1.0 3.1 9 ------- null}
+ -t 0.800764444444444 -s 3 -d 2 -p ack -e 40 -c 0 -i 27 -a 0 -x {3.1 1.0 9 ------- null}
- -t 0.800764444444444 -s 3 -d 2 -p ack -e 40 -c 0 -i 27 -a 0 -x {3.1 1.0 9 ------- null}
h -t 0.800764444444444 -s 3 -d 2 -p ack -e 40 -c 0 -i 27 -a 0 -x {3.1 1.0 -1 ------- null}
r -t 0.801875555555555 -s 3 -d 2 -p ack -e 40 -c 0 -i 26 -a 0 -x {3.1 1.0 8 ------- null}
+ -t 0.801875555555555 -s 2 -d 1 -p ack -e 40 -c 0 -i 26 -a 0 -x {3.1 1.0 8 ------- null}
- -t 0.801875555555555 -s 2 -d 1 -p ack -e 40 -c 0 -i 26 -a 0 -x {3.1 1.0 8 ------- null}
h -t 0.801875555555555 -s 2 -d 1 -p ack -e 40 -c 0 -i 26 -a 0 -x {3.1 1.0 -1 ------- null}
r -t 0.802791111111111 -s 2 -d 1 -p ack -e 40 -c 0 -i 25 -a 0 -x {3.1 1.0 7 ------- null}
+ -t 0.802791111111111 -s 1 -d 2 -p tcp -e 1040 -c 0 -i 28 -a 0 -x {1.0 3.1 15 ------- null}
- -t 0.802791111111111 -s 1 -d 2 -p tcp -e 1040 -c 0 -i 28 -a 0 -x {1.0 3.1 15 ------- null}
h -t 0.802791111111111 -s 1 -d 2 -p tcp -e 1040 -c 0 -i 28 -a 0 -x {1.0 3.1 -1 ------- null}
+ -t 0.802791111111111 -s 1 -d 2 -p tcp -e 1040 -c 0 -i 29 -a 0 -x {1.0 3.1 16 ------- null}
- -t 0.806951111111111 -s 1 -d 2 -p tcp -e 1040 -c 0 -i 29 -a 0 -x {1.0 3.1 16 ------- null}
h -t 0.806951111111111 -s 1 -d 2 -p tcp -e 1040 -c 0 -i 29 -a 0 -x {1.0 3.1 -1 ------- null}
- -t 0.809253333333333 -s 2 -d 3 -p tcp -e 1040 -c 0 -i 21 -a 0 -x {1.0 3.1 11 ------- null}
h -t 0.809253333333333 -s 2 -d 3 -p tcp -e 1040 -c 0 -i 21 -a 0 -x {1.0 3.1 -1 ------- null}
r -t 0.810008888888888 -s 2 -d 3 -p tcp -e 1040 -c 0 -i 20 -a 0 -x {0.0 3.0 1 ------- null}
+ -t 0.810008888888888 -s 3 -d 2 -p ack -e 40 -c 0 -i 30 -a 0 -x {3.0 0.0 1 ------- null}
- -t 0.810008888888888 -s 3 -d 2 -p ack -e 40 -c 0 -i 30 -a 0 -x {3.0 0.0 1 ------- null}
h -t 0.810008888888888 -s 3 -d 2 -p ack -e 40 -c 0 -i 30 -a 0 -x {3.0 0.0 -1 ------- null}
r -t 0.81112 -s 3 -d 2 -p ack -e 40 -c 0 -i 27 -a 0 -x {3.1 1.0 9 ------- null}
+ -t 0.81112 -s 2 -d 1 -p ack -e 40 -c 0 -i 27 -a 0 -x {3.1 1.0 9 ------- null}
- -t 0.81112 -s 2 -d 1 -p ack -e 40 -c 0 -i 27 -a 0 -x {3.1 1.0 9 ------- null}
h -t 0.81112 -s 2 -d 1 -p ack -e 40 -c 0 -i 27 -a 0 -x {3.1 1.0 -1 ------- null}
r -t 0.812035555555555 -s 2 -d 1 -p ack -e 40 -c 0 -i 26 -a 0 -x {3.1 1.0 8 ------- null}
+ -t 0.812035555555555 -s 1 -d 2 -p tcp -e 1040 -c 0 -i 31 -a 0 -x {1.0 3.1 17 ------- null}
- -t 0.812035555555555 -s 1 -d 2 -p tcp -e 1040 -c 0 -i 31 -a 0 -x {1.0 3.1 17 ------- null}
h -t 0.812035555555555 -s 1 -d 2 -p tcp -e 1040 -c 0 -i 31 -a 0 -x {1.0 3.1 -1 ------- null}
+ -t 0.812035555555555 -s 1 -d 2 -p tcp -e 1040 -c 0 -i 32 -a 0 -x {1.0 3.1 18 ------- null}
- -t 0.816195555555555 -s 1 -d 2 -p tcp -e 1040 -c 0 -i 32 -a 0 -x {1.0 3.1 18 ------- null}
h -t 0.816195555555555 -s 1 -d 2 -p tcp -e 1040 -c 0 -i 32 -a 0 -x {1.0 3.1 -1 ------- null}
r -t 0.816951111111111 -s 1 -d 2 -p tcp -e 1040 -c 0 -i 28 -a 0 -x {1.0 3.1 15 ------- null}
+ -t 0.816951111111111 -s 2 -d 3 -p tcp -e 1040 -c 0 -i 28 -a 0 -x {1.0 3.1 15 ------- null}
- -t 0.818497777777777 -s 2 -d 3 -p tcp -e 1040 -c 0 -i 22 -a 0 -x {1.0 3.1 12 ------- null}
h -t 0.818497777777777 -s 2 -d 3 -p tcp -e 1040 -c 0 -i 22 -a 0 -x {1.0 3.1 -1 ------- null}
r -t 0.819253333333333 -s 2 -d 3 -p tcp -e 1040 -c 0 -i 19 -a 0 -x {1.0 3.1 10 ------- null}
+ -t 0.819253333333333 -s 3 -d 2 -p ack -e 40 -c 0 -i 33 -a 0 -x {3.1 1.0 10 ------- null}
- -t 0.819253333333333 -s 3 -d 2 -p ack -e 40 -c 0 -i 33 -a 0 -x {3.1 1.0 10 ------- null}
h -t 0.819253333333333 -s 3 -d 2 -p ack -e 40 -c 0 -i 33 -a 0 -x {3.1 1.0 -1 ------- null}
r -t 0.820364444444444 -s 3 -d 2 -p ack -e 40 -c 0 -i 30 -a 0 -x {3.0 0.0 1 ------- null}
+ -t 0.820364444444444 -s 2 -d 0 -p ack -e 40 -c 0 -i 30 -a 0 -x {3.0 0.0 1 ------- null}
- -t 0.820364444444444 -s 2 -d 0 -p ack -e 40 -c 0 -i 30 -a 0 -x {3.0 0.0 1 ------- null}
h -t 0.820364444444444 -s 2 -d 0 -p ack -e 40 -c 0 -i 30 -a 0 -x {3.0 0.0 -1 ------- null}
r -t 0.821111111111111 -s 1 -d 2 -p tcp -e 1040 -c 0 -i 29 -a 0 -x {1.0 3.1 16 ------- null}
+ -t 0.821111111111111 -s 2 -d 3 -p tcp -e 1040 -c 0 -i 29 -a 0 -x {1.0 3.1 16 ------- null}
r -t 0.821279999999999 -s 2 -d 1 -p ack -e 40 -c 0 -i 27 -a 0 -x {3.1 1.0 9 ------- null}
+ -t 0.821279999999999 -s 1 -d 2 -p tcp -e 1040 -c 0 -i 34 -a 0 -x {1.0 3.1 19 ------- null}
- -t 0.821279999999999 -s 1 -d 2 -p tcp -e 1040 -c 0 -i 34 -a 0 -x {1.0 3.1 19 ------- null}
h -t 0.821279999999999 -s 1 -d 2 -p tcp -e 1040 -c 0 -i 34 -a 0 -x {1.0 3.1 -1 ------- null}
+ -t 0.821279999999999 -s 1 -d 2 -p tcp -e 1040 -c 0 -i 35 -a 0 -x {1.0 3.1 20 ------- null}
- -t 0.82544 -s 1 -d 2 -p tcp -e 1040 -c 0 -i 35 -a 0 -x {1.0 3.1 20 ------- null}
h -t 0.82544 -s 1 -d 2 -p tcp -e 1040 -c 0 -i 35 -a 0 -x {1.0 3.1 -1 ------- null}
r -t 0.826195555555555 -s 1 -d 2 -p tcp -e 1040 -c 0 -i 31 -a 0 -x {1.0 3.1 17 ------- null}
+ -t 0.826195555555555 -s 2 -d 3 -p tcp -e 1040 -c 0 -i 31 -a 0 -x {1.0 3.1 17 ------- null}
- -t 0.827742222222221 -s 2 -d 3 -p tcp -e 1040 -c 0 -i 23 -a 0 -x {1.0 3.1 13 ------- null}
h -t 0.827742222222221 -s 2 -d 3 -p tcp -e 1040 -c 0 -i 23 -a 0 -x {1.0 3.1 -1 ------- null}
r -t 0.828497777777777 -s 2 -d 3 -p tcp -e 1040 -c 0 -i 21 -a 0 -x {1.0 3.1 11 ------- null}
+ -t 0.828497777777777 -s 3 -d 2 -p ack -e 40 -c 0 -i 36 -a 0 -x {3.1 1.0 11 ------- null}
- -t 0.828497777777777 -s 3 -d 2 -p ack -e 40 -c 0 -i 36 -a 0 -x {3.1 1.0 11 ------- null}
h -t 0.828497777777777 -s 3 -d 2 -p ack -e 40 -c 0 -i 36 -a 0 -x {3.1 1.0 -1 ------- null}
r -t 0.829608888888888 -s 3 -d 2 -p ack -e 40 -c 0 -i 33 -a 0 -x {3.1 1.0 10 ------- null}
+ -t 0.829608888888888 -s 2 -d 1 -p ack -e 40 -c 0 -i 33 -a 0 -x {3.1 1.0 10 ------- null}
- -t 0.829608888888888 -s 2 -d 1 -p ack -e 40 -c 0 -i 33 -a 0 -x {3.1 1.0 10 ------- null}
h -t 0.829608888888888 -s 2 -d 1 -p ack -e 40 -c 0 -i 33 -a 0 -x {3.1 1.0 -1 ------- null}
r -t 0.830355555555555 -s 1 -d 2 -p tcp -e 1040 -c 0 -i 32 -a 0 -x {1.0 3.1 18 ------- null}
+ -t 0.830355555555555 -s 2 -d 3 -p tcp -e 1040 -c 0 -i 32 -a 0 -x {1.0 3.1 18 ------- null}
r -t 0.830524444444444 -s 2 -d 0 -p ack -e 40 -c 0 -i 30 -a 0 -x {3.0 0.0 1 ------- null}
r -t 0.835439999999999 -s 1 -d 2 -p tcp -e 1040 -c 0 -i 34 -a 0 -x {1.0 3.1 19 ------- null}
+ -t 0.835439999999999 -s 2 -d 3 -p tcp -e 1040 -c 0 -i 34 -a 0 -x {1.0 3.1 19 ------- null}
- -t 0.836986666666666 -s 2 -d 3 -p tcp -e 1040 -c 0 -i 24 -a 0 -x {1.0 3.1 14 ------- null}
h -t 0.836986666666666 -s 2 -d 3 -p tcp -e 1040 -c 0 -i 24 -a 0 -x {1.0 3.1 -1 ------- null}
r -t 0.837742222222221 -s 2 -d 3 -p tcp -e 1040 -c 0 -i 22 -a 0 -x {1.0 3.1 12 ------- null}
+ -t 0.837742222222221 -s 3 -d 2 -p ack -e 40 -c 0 -i 37 -a 0 -x {3.1 1.0 12 ------- null}
- -t 0.837742222222221 -s 3 -d 2 -p ack -e 40 -c 0 -i 37 -a 0 -x {3.1 1.0 12 ------- null}
h -t 0.837742222222221 -s 3 -d 2 -p ack -e 40 -c 0 -i 37 -a 0 -x {3.1 1.0 -1 ------- null}
r -t 0.838853333333333 -s 3 -d 2 -p ack -e 40 -c 0 -i 36 -a 0 -x {3.1 1.0 11 ------- null}
+ -t 0.838853333333333 -s 2 -d 1 -p ack -e 40 -c 0 -i 36 -a 0 -x {3.1 1.0 11 ------- null}
- -t 0.838853333333333 -s 2 -d 1 -p ack -e 40 -c 0 -i 36 -a 0 -x {3.1 1.0 11 ------- null}
h -t 0.838853333333333 -s 2 -d 1 -p ack -e 40 -c 0 -i 36 -a 0 -x {3.1 1.0 -1 ------- null}
r -t 0.839599999999999 -s 1 -d 2 -p tcp -e 1040 -c 0 -i 35 -a 0 -x {1.0 3.1 20 ------- null}
+ -t 0.839599999999999 -s 2 -d 3 -p tcp -e 1040 -c 0 -i 35 -a 0 -x {1.0 3.1 20 ------- null}
r -t 0.839768888888888 -s 2 -d 1 -p ack -e 40 -c 0 -i 33 -a 0 -x {3.1 1.0 10 ------- null}
+ -t 0.839768888888888 -s 1 -d 2 -p tcp -e 1040 -c 0 -i 38 -a 0 -x {1.0 3.1 21 ------- null}
- -t 0.839768888888888 -s 1 -d 2 -p tcp -e 1040 -c 0 -i 38 -a 0 -x {1.0 3.1 21 ------- null}
h -t 0.839768888888888 -s 1 -d 2 -p tcp -e 1040 -c 0 -i 38 -a 0 -x {1.0 3.1 -1 ------- null}
+ -t 0.839768888888888 -s 1 -d 2 -p tcp -e 1040 -c 0 -i 39 -a 0 -x {1.0 3.1 22 ------- null}
- -t 0.843928888888888 -s 1 -d 2 -p tcp -e 1040 -c 0 -i 39 -a 0 -x {1.0 3.1 22 ------- null}
h -t 0.843928888888888 -s 1 -d 2 -p tcp -e 1040 -c 0 -i 39 -a 0 -x {1.0 3.1 -1 ------- null}
- -t 0.84623111111111 -s 2 -d 3 -p tcp -e 1040 -c 0 -i 28 -a 0 -x {1.0 3.1 15 ------- null}
h -t 0.84623111111111 -s 2 -d 3 -p tcp -e 1040 -c 0 -i 28 -a 0 -x {1.0 3.1 -1 ------- null}
r -t 0.846986666666666 -s 2 -d 3 -p tcp -e 1040 -c 0 -i 23 -a 0 -x {1.0 3.1 13 ------- null}
+ -t 0.846986666666666 -s 3 -d 2 -p ack -e 40 -c 0 -i 40 -a 0 -x {3.1 1.0 13 ------- null}
- -t 0.846986666666666 -s 3 -d 2 -p ack -e 40 -c 0 -i 40 -a 0 -x {3.1 1.0 13 ------- null}
h -t 0.846986666666666 -s 3 -d 2 -p ack -e 40 -c 0 -i 40 -a 0 -x {3.1 1.0 -1 ------- null}
r -t 0.848097777777777 -s 3 -d 2 -p ack -e 40 -c 0 -i 37 -a 0 -x {3.1 1.0 12 ------- null}
+ -t 0.848097777777777 -s 2 -d 1 -p ack -e 40 -c 0 -i 37 -a 0 -x {3.1 1.0 12 ------- null}
- -t 0.848097777777777 -s 2 -d 1 -p ack -e 40 -c 0 -i 37 -a 0 -x {3.1 1.0 12 ------- null}
h -t 0.848097777777777 -s 2 -d 1 -p ack -e 40 -c 0 -i 37 -a 0 -x {3.1 1.0 -1 ------- null}
r -t 0.849013333333333 -s 2 -d 1 -p ack -e 40 -c 0 -i 36 -a 0 -x {3.1 1.0 11 ------- null}
+ -t 0.849013333333333 -s 1 -d 2 -p tcp -e 1040 -c 0 -i 41 -a 0 -x {1.0 3.1 23 ------- null}
- -t 0.849013333333333 -s 1 -d 2 -p tcp -e 1040 -c 0 -i 41 -a 0 -x {1.0 3.1 23 ------- null}
h -t 0.849013333333333 -s 1 -d 2 -p tcp -e 1040 -c 0 -i 41 -a 0 -x {1.0 3.1 -1 ------- null}
+ -t 0.849013333333333 -s 1 -d 2 -p tcp -e 1040 -c 0 -i 42 -a 0 -x {1.0 3.1 24 ------- null}
- -t 0.853173333333333 -s 1 -d 2 -p tcp -e 1040 -c 0 -i 42 -a 0 -x {1.0 3.1 24 ------- null}
h -t 0.853173333333333 -s 1 -d 2 -p tcp -e 1040 -c 0 -i 42 -a 0 -x {1.0 3.1 -1 ------- null}
r -t 0.853928888888888 -s 1 -d 2 -p tcp -e 1040 -c 0 -i 38 -a 0 -x {1.0 3.1 21 ------- null}
+ -t 0.853928888888888 -s 2 -d 3 -p tcp -e 1040 -c 0 -i 38 -a 0 -x {1.0 3.1 21 ------- null}
- -t 0.855475555555555 -s 2 -d 3 -p tcp -e 1040 -c 0 -i 29 -a 0 -x {1.0 3.1 16 ------- null}
h -t 0.855475555555555 -s 2 -d 3 -p tcp -e 1040 -c 0 -i 29 -a 0 -x {1.0 3.1 -1 ------- null}
r -t 0.85623111111111 -s 2 -d 3 -p tcp -e 1040 -c 0 -i 24 -a 0 -x {1.0 3.1 14 ------- null}
+ -t 0.85623111111111 -s 3 -d 2 -p ack -e 40 -c 0 -i 43 -a 0 -x {3.1 1.0 14 ------- null}
- -t 0.85623111111111 -s 3 -d 2 -p ack -e 40 -c 0 -i 43 -a 0 -x {3.1 1.0 14 ------- null}
h -t 0.85623111111111 -s 3 -d 2 -p ack -e 40 -c 0 -i 43 -a 0 -x {3.1 1.0 -1 ------- null}
r -t 0.857342222222221 -s 3 -d 2 -p ack -e 40 -c 0 -i 40 -a 0 -x {3.1 1.0 13 ------- null}
+ -t 0.857342222222221 -s 2 -d 1 -p ack -e 40 -c 0 -i 40 -a 0 -x {3.1 1.0 13 ------- null}
- -t 0.857342222222221 -s 2 -d 1 -p ack -e 40 -c 0 -i 40 -a 0 -x {3.1 1.0 13 ------- null}
h -t 0.857342222222221 -s 2 -d 1 -p ack -e 40 -c 0 -i 40 -a 0 -x {3.1 1.0 -1 ------- null}
r -t 0.858088888888888 -s 1 -d 2 -p tcp -e 1040 -c 0 -i 39 -a 0 -x {1.0 3.1 22 ------- null}
+ -t 0.858088888888888 -s 2 -d 3 -p tcp -e 1040 -c 0 -i 39 -a 0 -x {1.0 3.1 22 ------- null}
r -t 0.858257777777777 -s 2 -d 1 -p ack -e 40 -c 0 -i 37 -a 0 -x {3.1 1.0 12 ------- null}
+ -t 0.858257777777777 -s 1 -d 2 -p tcp -e 1040 -c 0 -i 44 -a 0 -x {1.0 3.1 25 ------- null}
- -t 0.858257777777777 -s 1 -d 2 -p tcp -e 1040 -c 0 -i 44 -a 0 -x {1.0 3.1 25 ------- null}
h -t 0.858257777777777 -s 1 -d 2 -p tcp -e 1040 -c 0 -i 44 -a 0 -x {1.0 3.1 -1 ------- null}
+ -t 0.858257777777777 -s 1 -d 2 -p tcp -e 1040 -c 0 -i 45 -a 0 -x {1.0 3.1 26 ------- null}
- -t 0.862417777777777 -s 1 -d 2 -p tcp -e 1040 -c 0 -i 45 -a 0 -x {1.0 3.1 26 ------- null}
h -t 0.862417777777777 -s 1 -d 2 -p tcp -e 1040 -c 0 -i 45 -a 0 -x {1.0 3.1 -1 ------- null}
r -t 0.863173333333333 -s 1 -d 2 -p tcp -e 1040 -c 0 -i 41 -a 0 -x {1.0 3.1 23 ------- null}
+ -t 0.863173333333333 -s 2 -d 3 -p tcp -e 1040 -c 0 -i 41 -a 0 -x {1.0 3.1 23 ------- null}
- -t 0.864719999999999 -s 2 -d 3 -p tcp -e 1040 -c 0 -i 31 -a 0 -x {1.0 3.1 17 ------- null}
h -t 0.864719999999999 -s 2 -d 3 -p tcp -e 1040 -c 0 -i 31 -a 0 -x {1.0 3.1 -1 ------- null}
r -t 0.865475555555555 -s 2 -d 3 -p tcp -e 1040 -c 0 -i 28 -a 0 -x {1.0 3.1 15 ------- null}
+ -t 0.865475555555555 -s 3 -d 2 -p ack -e 40 -c 0 -i 46 -a 0 -x {3.1 1.0 15 ------- null}
- -t 0.865475555555555 -s 3 -d 2 -p ack -e 40 -c 0 -i 46 -a 0 -x {3.1 1.0 15 ------- null}