+ 0.1 1 0 ping 64 ------- 0 1.0 4.0 -1 0
- 0.1 1 0 ping 64 ------- 0 1.0 4.0 -1 0
r 0.110512 1 0 ping 64 ------- 0 1.0 4.0 -1 0
+ 0.110512 0 4 ping 64 ------- 0 1.0 4.0 -1 0
- 0.110512 0 4 ping 64 ------- 0 1.0 4.0 -1 0
r 0.211024 0 4 ping 64 ------- 0 1.0 4.0 -1 0
+ 0.211024 4 0 ping 64 ------- 0 4.0 1.0 -1 1
- 0.211024 4 0 ping 64 ------- 0 4.0 1.0 -1 1
r 0.311536 4 0 ping 64 ------- 0 4.0 1.0 -1 1
+ 0.311536 0 1 ping 64 ------- 0 4.0 1.0 -1 1
- 0.311536 0 1 ping 64 ------- 0 4.0 1.0 -1 1
r 0.322048 0 1 ping 64 ------- 0 4.0 1.0 -1 1
+ 0.5 2 0 ping 64 ------- 0 2.0 5.0 -1 2
- 0.5 2 0 ping 64 ------- 0 2.0 5.0 -1 2
+ 0.5 3 0 ping 64 ------- 0 3.0 6.0 -1 3
- 0.5 3 0 ping 64 ------- 0 3.0 6.0 -1 3
+ 0.5 4 0 ping 64 ------- 0 4.0 1.0 -1 4
- 0.5 4 0 ping 64 ------- 0 4.0 1.0 -1 4
r 0.510512 2 0 ping 64 ------- 0 2.0 5.0 -1 2
+ 0.510512 0 5 ping 64 ------- 0 2.0 5.0 -1 2
- 0.510512 0 5 ping 64 ------- 0 2.0 5.0 -1 2
r 0.510512 3 0 ping 64 ------- 0 3.0 6.0 -1 3
+ 0.510512 0 6 ping 64 ------- 0 3.0 6.0 -1 3
d 0.510512 0 6 ping 64 ------- 0 3.0 6.0 -1 3
r 0.600512 4 0 ping 64 ------- 0 4.0 1.0 -1 4
+ 0.600512 0 1 ping 64 ------- 0 4.0 1.0 -1 4
- 0.600512 0 1 ping 64 ------- 0 4.0 1.0 -1 4
r 0.611024 0 5 ping 64 ------- 0 2.0 5.0 -1 2
+ 0.611024 5 0 ping 64 ------- 0 5.0 2.0 -1 5
- 0.611024 5 0 ping 64 ------- 0 5.0 2.0 -1 5
r 0.611024 0 1 ping 64 ------- 0 4.0 1.0 -1 4
+ 0.611024 1 0 ping 64 ------- 0 1.0 4.0 -1 6
- 0.611024 1 0 ping 64 ------- 0 1.0 4.0 -1 6
r 0.621536 1 0 ping 64 ------- 0 1.0 4.0 -1 6
+ 0.621536 0 4 ping 64 ------- 0 1.0 4.0 -1 6
- 0.621536 0 4 ping 64 ------- 0 1.0 4.0 -1 6
r 0.711536 5 0 ping 64 ------- 0 5.0 2.0 -1 5
+ 0.711536 0 2 ping 64 ------- 0 5.0 2.0 -1 5
- 0.711536 0 2 ping 64 ------- 0 5.0 2.0 -1 5
r 0.722048 0 4 ping 64 ------- 0 1.0 4.0 -1 6
r 0.722048 0 2 ping 64 ------- 0 5.0 2.0 -1 5
+ 1 5 0 ping 64 ------- 0 5.0 2.0 -1 7
- 1 5 0 ping 64 ------- 0 5.0 2.0 -1 7
+ 1 6 0 ping 64 ------- 0 6.0 3.0 -1 8
- 1 6 0 ping 64 ------- 0 6.0 3.0 -1 8
r 1.090512 6 0 ping 64 ------- 0 6.0 3.0 -1 8
+ 1.090512 0 3 ping 64 ------- 0 6.0 3.0 -1 8
- 1.090512 0 3 ping 64 ------- 0 6.0 3.0 -1 8
+ 1.1 1 0 ping 64 ------- 0 1.0 4.0 -1 9
- 1.1 1 0 ping 64 ------- 0 1.0 4.0 -1 9
r 1.100512 5 0 ping 64 ------- 0 5.0 2.0 -1 7
+ 1.100512 0 2 ping 64 ------- 0 5.0 2.0 -1 7
- 1.100512 0 2 ping 64 ------- 0 5.0 2.0 -1 7
r 1.101024 0 3 ping 64 ------- 0 6.0 3.0 -1 8
+ 1.101024 3 0 ping 64 ------- 0 3.0 6.0 -1 10
- 1.101024 3 0 ping 64 ------- 0 3.0 6.0 -1 10
r 1.110512 1 0 ping 64 ------- 0 1.0 4.0 -1 9
+ 1.110512 0 4 ping 64 ------- 0 1.0 4.0 -1 9
- 1.110512 0 4 ping 64 ------- 0 1.0 4.0 -1 9
r 1.111024 0 2 ping 64 ------- 0 5.0 2.0 -1 7
+ 1.111024 2 0 ping 64 ------- 0 2.0 5.0 -1 11
- 1.111024 2 0 ping 64 ------- 0 2.0 5.0 -1 11
r 1.111536 3 0 ping 64 ------- 0 3.0 6.0 -1 10
+ 1.111536 0 6 ping 64 ------- 0 3.0 6.0 -1 10
d 1.111536 0 6 ping 64 ------- 0 3.0 6.0 -1 10
r 1.121536 2 0 ping 64 ------- 0 2.0 5.0 -1 11
+ 1.121536 0 5 ping 64 ------- 0 2.0 5.0 -1 11
- 1.121536 0 5 ping 64 ------- 0 2.0 5.0 -1 11
r 1.211024 0 4 ping 64 ------- 0 1.0 4.0 -1 9
+ 1.211024 4 0 ping 64 ------- 0 4.0 1.0 -1 12
- 1.211024 4 0 ping 64 ------- 0 4.0 1.0 -1 12
r 1.222048 0 5 ping 64 ------- 0 2.0 5.0 -1 11
r 1.311536 4 0 ping 64 ------- 0 4.0 1.0 -1 12
+ 1.311536 0 1 ping 64 ------- 0 4.0 1.0 -1 12
- 1.311536 0 1 ping 64 ------- 0 4.0 1.0 -1 12
r 1.322048 0 1 ping 64 ------- 0 4.0 1.0 -1 12
+ 1.5 2 0 ping 64 ------- 0 2.0 5.0 -1 13
- 1.5 2 0 ping 64 ------- 0 2.0 5.0 -1 13
+ 1.5 3 0 ping 64 ------- 0 3.0 6.0 -1 14
- 1.5 3 0 ping 64 ------- 0 3.0 6.0 -1 14
+ 1.5 4 0 ping 64 ------- 0 4.0 1.0 -1 15
- 1.5 4 0 ping 64 ------- 0 4.0 1.0 -1 15
r 1.510512 2 0 ping 64 ------- 0 2.0 5.0 -1 13
+ 1.510512 0 5 ping 64 ------- 0 2.0 5.0 -1 13
- 1.510512 0 5 ping 64 ------- 0 2.0 5.0 -1 13
r 1.510512 3 0 ping 64 ------- 0 3.0 6.0 -1 14
+ 1.510512 0 6 ping 64 ------- 0 3.0 6.0 -1 14
d 1.510512 0 6 ping 64 ------- 0 3.0 6.0 -1 14
r 1.600512 4 0 ping 64 ------- 0 4.0 1.0 -1 15
+ 1.600512 0 1 ping 64 ------- 0 4.0 1.0 -1 15
- 1.600512 0 1 ping 64 ------- 0 4.0 1.0 -1 15
r 1.611024 0 5 ping 64 ------- 0 2.0 5.0 -1 13
+ 1.611024 5 0 ping 64 ------- 0 5.0 2.0 -1 16
- 1.611024 5 0 ping 64 ------- 0 5.0 2.0 -1 16
r 1.611024 0 1 ping 64 ------- 0 4.0 1.0 -1 15
+ 1.611024 1 0 ping 64 ------- 0 1.0 4.0 -1 17
- 1.611024 1 0 ping 64 ------- 0 1.0 4.0 -1 17
r 1.621536 1 0 ping 64 ------- 0 1.0 4.0 -1 17
+ 1.621536 0 4 ping 64 ------- 0 1.0 4.0 -1 17
- 1.621536 0 4 ping 64 ------- 0 1.0 4.0 -1 17
r 1.711536 5 0 ping 64 ------- 0 5.0 2.0 -1 16
+ 1.711536 0 2 ping 64 ------- 0 5.0 2.0 -1 16
- 1.711536 0 2 ping 64 ------- 0 5.0 2.0 -1 16
r 1.722048 0 4 ping 64 ------- 0 1.0 4.0 -1 17
r 1.722048 0 2 ping 64 ------- 0 5.0 2.0 -1 16
+ 2 5 0 ping 64 ------- 0 5.0 2.0 -1 18
- 2 5 0 ping 64 ------- 0 5.0 2.0 -1 18
+ 2 6 0 ping 64 ------- 0 6.0 3.0 -1 19
- 2 6 0 ping 64 ------- 0 6.0 3.0 -1 19
r 2.090512 6 0 ping 64 ------- 0 6.0 3.0 -1 19
+ 2.090512 0 3 ping 64 ------- 0 6.0 3.0 -1 19
- 2.090512 0 3 ping 64 ------- 0 6.0 3.0 -1 19
r 2.100512 5 0 ping 64 ------- 0 5.0 2.0 -1 18
+ 2.100512 0 2 ping 64 ------- 0 5.0 2.0 -1 18
- 2.100512 0 2 ping 64 ------- 0 5.0 2.0 -1 18
r 2.101024 0 3 ping 64 ------- 0 6.0 3.0 -1 19
+ 2.101024 3 0 ping 64 ------- 0 3.0 6.0 -1 20
- 2.101024 3 0 ping 64 ------- 0 3.0 6.0 -1 20
r 2.111024 0 2 ping 64 ------- 0 5.0 2.0 -1 18
+ 2.111024 2 0 ping 64 ------- 0 2.0 5.0 -1 21
- 2.111024 2 0 ping 64 ------- 0 2.0 5.0 -1 21
r 2.111536 3 0 ping 64 ------- 0 3.0 6.0 -1 20
+ 2.111536 0 6 ping 64 ------- 0 3.0 6.0 -1 20
d 2.111536 0 6 ping 64 ------- 0 3.0 6.0 -1 20
r 2.121536 2 0 ping 64 ------- 0 2.0 5.0 -1 21
+ 2.121536 0 5 ping 64 ------- 0 2.0 5.0 -1 21
- 2.121536 0 5 ping 64 ------- 0 2.0 5.0 -1 21
r 2.222048 0 5 ping 64 ------- 0 2.0 5.0 -1 21
