+ 0.1 1 2 cbr 1000 ------- 2 1.0 5.0 0 0
- 0.1 1 2 cbr 1000 ------- 2 1.0 5.0 0 0
r 0.114 1 2 cbr 1000 ------- 2 1.0 5.0 0 0
+ 0.114 2 3 cbr 1000 ------- 2 1.0 5.0 0 0
- 0.114 2 3 cbr 1000 ------- 2 1.0 5.0 0 0
+ 0.14 1 2 cbr 1000 ------- 2 1.0 5.0 1 1
- 0.14 1 2 cbr 1000 ------- 2 1.0 5.0 1 1
r 0.154 1 2 cbr 1000 ------- 2 1.0 5.0 1 1
+ 0.154 2 3 cbr 1000 ------- 2 1.0 5.0 1 1
- 0.154 2 3 cbr 1000 ------- 2 1.0 5.0 1 1
+ 0.18 1 2 cbr 1000 ------- 2 1.0 5.0 2 2
- 0.18 1 2 cbr 1000 ------- 2 1.0 5.0 2 2
r 0.194 1 2 cbr 1000 ------- 2 1.0 5.0 2 2
+ 0.194 2 3 cbr 1000 ------- 2 1.0 5.0 2 2
- 0.194 2 3 cbr 1000 ------- 2 1.0 5.0 2 2
+ 0.22 1 2 cbr 1000 ------- 2 1.0 5.0 3 3
- 0.22 1 2 cbr 1000 ------- 2 1.0 5.0 3 3
r 0.234 1 2 cbr 1000 ------- 2 1.0 5.0 3 3
+ 0.234 2 3 cbr 1000 ------- 2 1.0 5.0 3 3
- 0.234 2 3 cbr 1000 ------- 2 1.0 5.0 3 3
r 0.240667 2 3 cbr 1000 ------- 2 1.0 5.0 0 0
h 0.240667 3 6 cbr 1000 ------- 2 1.0 5.0 0 0
+ 0.26 1 2 cbr 1000 ------- 2 1.0 5.0 4 4
- 0.26 1 2 cbr 1000 ------- 2 1.0 5.0 4 4
r 0.274 1 2 cbr 1000 ------- 2 1.0 5.0 4 4
+ 0.274 2 3 cbr 1000 ------- 2 1.0 5.0 4 4
- 0.274 2 3 cbr 1000 ------- 2 1.0 5.0 4 4
+ 0.280667 3 6 cbr 1000 ------- 2 1.0 5.0 0 0
- 0.280667 3 6 cbr 1000 ------- 2 1.0 5.0 0 0
r 0.280667 2 3 cbr 1000 ------- 2 1.0 5.0 1 1
h 0.280667 3 6 cbr 1000 ------- 2 1.0 5.0 1 1
d 0.280671 4 6 cbr 1000 ------- 2 1.0 5.0 0 0
+ 0.3 1 2 cbr 1000 ------- 2 1.0 5.0 5 5
- 0.3 1 2 cbr 1000 ------- 2 1.0 5.0 5 5
r 0.314 1 2 cbr 1000 ------- 2 1.0 5.0 5 5
+ 0.314 2 3 cbr 1000 ------- 2 1.0 5.0 5 5
- 0.314 2 3 cbr 1000 ------- 2 1.0 5.0 5 5
r 0.320667 2 3 cbr 1000 ------- 2 1.0 5.0 2 2
h 0.320667 3 6 cbr 1000 ------- 2 1.0 5.0 2 2
+ 0.320667 3 6 cbr 1000 ------- 2 1.0 5.0 1 1
- 0.320667 3 6 cbr 1000 ------- 2 1.0 5.0 1 1
r 0.320671 6 5 cbr 1000 ------- 2 1.0 5.0 0 0
d 0.320671 4 6 cbr 1000 ------- 2 1.0 5.0 1 1
+ 0.34 1 2 cbr 1000 ------- 2 1.0 5.0 6 6
- 0.34 1 2 cbr 1000 ------- 2 1.0 5.0 6 6
r 0.354 1 2 cbr 1000 ------- 2 1.0 5.0 6 6
+ 0.354 2 3 cbr 1000 ------- 2 1.0 5.0 6 6
- 0.354 2 3 cbr 1000 ------- 2 1.0 5.0 6 6
r 0.360667 2 3 cbr 1000 ------- 2 1.0 5.0 3 3
h 0.360667 3 6 cbr 1000 ------- 2 1.0 5.0 3 3
+ 0.360667 3 6 cbr 1000 ------- 2 1.0 5.0 2 2
- 0.360667 3 6 cbr 1000 ------- 2 1.0 5.0 2 2
r 0.360671 6 5 cbr 1000 ------- 2 1.0 5.0 1 1
d 0.360671 4 6 cbr 1000 ------- 2 1.0 5.0 2 2
+ 0.38 1 2 cbr 1000 ------- 2 1.0 5.0 7 7
- 0.38 1 2 cbr 1000 ------- 2 1.0 5.0 7 7
r 0.394 1 2 cbr 1000 ------- 2 1.0 5.0 7 7
+ 0.394 2 3 cbr 1000 ------- 2 1.0 5.0 7 7
- 0.394 2 3 cbr 1000 ------- 2 1.0 5.0 7 7
+ 0.400667 3 6 cbr 1000 ------- 2 1.0 5.0 3 3
- 0.400667 3 6 cbr 1000 ------- 2 1.0 5.0 3 3
r 0.400667 2 3 cbr 1000 ------- 2 1.0 5.0 4 4
h 0.400667 3 6 cbr 1000 ------- 2 1.0 5.0 4 4
r 0.400671 6 5 cbr 1000 ------- 2 1.0 5.0 2 2
d 0.400671 4 6 cbr 1000 ------- 2 1.0 5.0 3 3
+ 0.42 1 2 cbr 1000 ------- 2 1.0 5.0 8 8
- 0.42 1 2 cbr 1000 ------- 2 1.0 5.0 8 8
r 0.434 1 2 cbr 1000 ------- 2 1.0 5.0 8 8
+ 0.434 2 3 cbr 1000 ------- 2 1.0 5.0 8 8
- 0.434 2 3 cbr 1000 ------- 2 1.0 5.0 8 8
r 0.440667 2 3 cbr 1000 ------- 2 1.0 5.0 5 5
h 0.440667 3 6 cbr 1000 ------- 2 1.0 5.0 5 5
+ 0.440667 3 6 cbr 1000 ------- 2 1.0 5.0 4 4
- 0.440667 3 6 cbr 1000 ------- 2 1.0 5.0 4 4
r 0.440671 6 5 cbr 1000 ------- 2 1.0 5.0 3 3
d 0.440671 4 6 cbr 1000 ------- 2 1.0 5.0 4 4
+ 0.46 1 2 cbr 1000 ------- 2 1.0 5.0 9 9
- 0.46 1 2 cbr 1000 ------- 2 1.0 5.0 9 9
r 0.474 1 2 cbr 1000 ------- 2 1.0 5.0 9 9
+ 0.474 2 3 cbr 1000 ------- 2 1.0 5.0 9 9
- 0.474 2 3 cbr 1000 ------- 2 1.0 5.0 9 9
+ 0.480667 3 6 cbr 1000 ------- 2 1.0 5.0 5 5
- 0.480667 3 6 cbr 1000 ------- 2 1.0 5.0 5 5
r 0.480667 2 3 cbr 1000 ------- 2 1.0 5.0 6 6
h 0.480667 3 6 cbr 1000 ------- 2 1.0 5.0 6 6
d 0.480671 4 6 cbr 1000 ------- 2 1.0 5.0 5 5
r 0.480671 6 5 cbr 1000 ------- 2 1.0 5.0 4 4
+ 0.5 1 2 cbr 1000 ------- 2 1.0 5.0 10 10
- 0.5 1 2 cbr 1000 ------- 2 1.0 5.0 10 10
r 0.514 1 2 cbr 1000 ------- 2 1.0 5.0 10 10
+ 0.514 2 3 cbr 1000 ------- 2 1.0 5.0 10 10
- 0.514 2 3 cbr 1000 ------- 2 1.0 5.0 10 10
r 0.520667 2 3 cbr 1000 ------- 2 1.0 5.0 7 7
h 0.520667 3 6 cbr 1000 ------- 2 1.0 5.0 7 7
+ 0.520667 3 6 cbr 1000 ------- 2 1.0 5.0 6 6
- 0.520667 3 6 cbr 1000 ------- 2 1.0 5.0 6 6
r 0.520671 6 5 cbr 1000 ------- 2 1.0 5.0 5 5
d 0.520671 4 6 cbr 1000 ------- 2 1.0 5.0 6 6
+ 0.54 1 2 cbr 1000 ------- 2 1.0 5.0 11 11
- 0.54 1 2 cbr 1000 ------- 2 1.0 5.0 11 11
r 0.554 1 2 cbr 1000 ------- 2 1.0 5.0 11 11
+ 0.554 2 3 cbr 1000 ------- 2 1.0 5.0 11 11
- 0.554 2 3 cbr 1000 ------- 2 1.0 5.0 11 11
r 0.560667 2 3 cbr 1000 ------- 2 1.0 5.0 8 8
h 0.560667 3 6 cbr 1000 ------- 2 1.0 5.0 8 8
+ 0.560667 3 6 cbr 1000 ------- 2 1.0 5.0 7 7
- 0.560667 3 6 cbr 1000 ------- 2 1.0 5.0 7 7
d 0.560671 4 6 cbr 1000 ------- 2 1.0 5.0 7 7
r 0.560671 6 5 cbr 1000 ------- 2 1.0 5.0 6 6
+ 0.58 1 2 cbr 1000 ------- 2 1.0 5.0 12 12
- 0.58 1 2 cbr 1000 ------- 2 1.0 5.0 12 12
r 0.594 1 2 cbr 1000 ------- 2 1.0 5.0 12 12
+ 0.594 2 3 cbr 1000 ------- 2 1.0 5.0 12 12
- 0.594 2 3 cbr 1000 ------- 2 1.0 5.0 12 12
r 0.600667 2 3 cbr 1000 ------- 2 1.0 5.0 9 9
h 0.600667 3 6 cbr 1000 ------- 2 1.0 5.0 9 9
+ 0.600667 3 6 cbr 1000 ------- 2 1.0 5.0 8 8
- 0.600667 3 6 cbr 1000 ------- 2 1.0 5.0 8 8
r 0.600671 6 5 cbr 1000 ------- 2 1.0 5.0 7 7
d 0.600671 4 6 cbr 1000 ------- 2 1.0 5.0 8 8
+ 0.62 1 2 cbr 1000 ------- 2 1.0 5.0 13 13
- 0.62 1 2 cbr 1000 ------- 2 1.0 5.0 13 13
r 0.634 1 2 cbr 1000 ------- 2 1.0 5.0 13 13
+ 0.634 2 3 cbr 1000 ------- 2 1.0 5.0 13 13
- 0.634 2 3 cbr 1000 ------- 2 1.0 5.0 13 13
r 0.640667 2 3 cbr 1000 ------- 2 1.0 5.0 10 10
h 0.640667 3 6 cbr 1000 ------- 2 1.0 5.0 10 10
+ 0.640667 3 6 cbr 1000 ------- 2 1.0 5.0 9 9
- 0.640667 3 6 cbr 1000 ------- 2 1.0 5.0 9 9
d 0.640671 4 6 cbr 1000 ------- 2 1.0 5.0 9 9
r 0.640671 6 5 cbr 1000 ------- 2 1.0 5.0 8 8
+ 0.66 1 2 cbr 1000 ------- 2 1.0 5.0 14 14
- 0.66 1 2 cbr 1000 ------- 2 1.0 5.0 14 14
r 0.674 1 2 cbr 1000 ------- 2 1.0 5.0 14 14
+ 0.674 2 3 cbr 1000 ------- 2 1.0 5.0 14 14
- 0.674 2 3 cbr 1000 ------- 2 1.0 5.0 14 14
r 0.680667 2 3 cbr 1000 ------- 2 1.0 5.0 11 11
h 0.680667 3 6 cbr 1000 ------- 2 1.0 5.0 11 11
+ 0.680667 3 6 cbr 1000 ------- 2 1.0 5.0 10 10
- 0.680667 3 6 cbr 1000 ------- 2 1.0 5.0 10 10
r 0.680671 6 5 cbr 1000 ------- 2 1.0 5.0 9 9
d 0.680671 4 6 cbr 1000 ------- 2 1.0 5.0 10 10
+ 0.7 1 2 cbr 1000 ------- 2 1.0 5.0 15 15
- 0.7 1 2 cbr 1000 ------- 2 1.0 5.0 15 15
r 0.714 1 2 cbr 1000 ------- 2 1.0 5.0 15 15
+ 0.714 2 3 cbr 1000 ------- 2 1.0 5.0 15 15
- 0.714 2 3 cbr 1000 ------- 2 1.0 5.0 15 15
r 0.720667 2 3 cbr 1000 ------- 2 1.0 5.0 12 12
h 0.720667 3 6 cbr 1000 ------- 2 1.0 5.0 12 12
+ 0.720667 3 6 cbr 1000 ------- 2 1.0 5.0 11 11
- 0.720667 3 6 cbr 1000 ------- 2 1.0 5.0 11 11
r 0.720671 6 5 cbr 1000 ------- 2 1.0 5.0 10 10
d 0.720671 4 6 cbr 1000 ------- 2 1.0 5.0 11 11
+ 0.74 1 2 cbr 1000 ------- 2 1.0 5.0 16 16
- 0.74 1 2 cbr 1000 ------- 2 1.0 5.0 16 16
r 0.754 1 2 cbr 1000 ------- 2 1.0 5.0 16 16
+ 0.754 2 3 cbr 1000 ------- 2 1.0 5.0 16 16
- 0.754 2 3 cbr 1000 ------- 2 1.0 5.0 16 16
r 0.760667 2 3 cbr 1000 ------- 2 1.0 5.0 13 13
h 0.760667 3 6 cbr 1000 ------- 2 1.0 5.0 13 13
+ 0.760667 3 6 cbr 1000 ------- 2 1.0 5.0 12 12
- 0.760667 3 6 cbr 1000 ------- 2 1.0 5.0 12 12
r 0.760671 6 5 cbr 1000 ------- 2 1.0 5.0 11 11
d 0.760671 4 6 cbr 1000 ------- 2 1.0 5.0 12 12
+ 0.78 1 2 cbr 1000 ------- 2 1.0 5.0 17 17
- 0.78 1 2 cbr 1000 ------- 2 1.0 5.0 17 17
r 0.794 1 2 cbr 1000 ------- 2 1.0 5.0 17 17
+ 0.794 2 3 cbr 1000 ------- 2 1.0 5.0 17 17
- 0.794 2 3 cbr 1000 ------- 2 1.0 5.0 17 17
r 0.800667 2 3 cbr 1000 ------- 2 1.0 5.0 14 14
h 0.800667 3 6 cbr 1000 ------- 2 1.0 5.0 14 14
+ 0.800667 3 6 cbr 1000 ------- 2 1.0 5.0 13 13
- 0.800667 3 6 cbr 1000 ------- 2 1.0 5.0 13 13
r 0.800671 6 5 cbr 1000 ------- 2 1.0 5.0 12 12
d 0.800671 4 6 cbr 1000 ------- 2 1.0 5.0 13 13
+ 0.82 1 2 cbr 1000 ------- 2 1.0 5.0 18 18
- 0.82 1 2 cbr 1000 ------- 2 1.0 5.0 18 18
r 0.834 1 2 cbr 1000 ------- 2 1.0 5.0 18 18
+ 0.834 2 3 cbr 1000 ------- 2 1.0 5.0 18 18
- 0.834 2 3 cbr 1000 ------- 2 1.0 5.0 18 18
r 0.840667 2 3 cbr 1000 ------- 2 1.0 5.0 15 15
h 0.840667 3 6 cbr 1000 ------- 2 1.0 5.0 15 15
+ 0.840667 3 6 cbr 1000 ------- 2 1.0 5.0 14 14
- 0.840667 3 6 cbr 1000 ------- 2 1.0 5.0 14 14
r 0.840671 6 5 cbr 1000 ------- 2 1.0 5.0 13 13
d 0.840671 4 6 cbr 1000 ------- 2 1.0 5.0 14 14
+ 0.86 1 2 cbr 1000 ------- 2 1.0 5.0 19 19
- 0.86 1 2 cbr 1000 ------- 2 1.0 5.0 19 19
r 0.874 1 2 cbr 1000 ------- 2 1.0 5.0 19 19
+ 0.874 2 3 cbr 1000 ------- 2 1.0 5.0 19 19
- 0.874 2 3 cbr 1000 ------- 2 1.0 5.0 19 19
r 0.880667 2 3 cbr 1000 ------- 2 1.0 5.0 16 16
h 0.880667 3 6 cbr 1000 ------- 2 1.0 5.0 16 16
+ 0.880667 3 6 cbr 1000 ------- 2 1.0 5.0 15 15
- 0.880667 3 6 cbr 1000 ------- 2 1.0 5.0 15 15
r 0.880671 6 5 cbr 1000 ------- 2 1.0 5.0 14 14
d 0.880671 4 6 cbr 1000 ------- 2 1.0 5.0 15 15
+ 0.9 1 2 cbr 1000 ------- 2 1.0 5.0 20 20
- 0.9 1 2 cbr 1000 ------- 2 1.0 5.0 20 20
r 0.914 1 2 cbr 1000 ------- 2 1.0 5.0 20 20
+ 0.914 2 3 cbr 1000 ------- 2 1.0 5.0 20 20
- 0.914 2 3 cbr 1000 ------- 2 1.0 5.0 20 20
r 0.920667 2 3 cbr 1000 ------- 2 1.0 5.0 17 17
h 0.920667 3 6 cbr 1000 ------- 2 1.0 5.0 17 17
+ 0.920667 3 6 cbr 1000 ------- 2 1.0 5.0 16 16
- 0.920667 3 6 cbr 1000 ------- 2 1.0 5.0 16 16
r 0.920671 6 5 cbr 1000 ------- 2 1.0 5.0 15 15
d 0.920671 4 6 cbr 1000 ------- 2 1.0 5.0 16 16
+ 0.94 1 2 cbr 1000 ------- 2 1.0 5.0 21 21
- 0.94 1 2 cbr 1000 ------- 2 1.0 5.0 21 21
r 0.954 1 2 cbr 1000 ------- 2 1.0 5.0 21 21
+ 0.954 2 3 cbr 1000 ------- 2 1.0 5.0 21 21
- 0.954 2 3 cbr 1000 ------- 2 1.0 5.0 21 21
r 0.960667 2 3 cbr 1000 ------- 2 1.0 5.0 18 18
h 0.960667 3 6 cbr 1000 ------- 2 1.0 5.0 18 18
+ 0.960667 3 6 cbr 1000 ------- 2 1.0 5.0 17 17
- 0.960667 3 6 cbr 1000 ------- 2 1.0 5.0 17 17
r 0.960671 6 5 cbr 1000 ------- 2 1.0 5.0 16 16
d 0.960671 4 6 cbr 1000 ------- 2 1.0 5.0 17 17
+ 0.98 1 2 cbr 1000 ------- 2 1.0 5.0 22 22
- 0.98 1 2 cbr 1000 ------- 2 1.0 5.0 22 22
r 0.994 1 2 cbr 1000 ------- 2 1.0 5.0 22 22
+ 0.994 2 3 cbr 1000 ------- 2 1.0 5.0 22 22
- 0.994 2 3 cbr 1000 ------- 2 1.0 5.0 22 22
+ 1 0 2 tcp 40 ------- 1 0.0 4.0 0 23
- 1 0 2 tcp 40 ------- 1 0.0 4.0 0 23
r 1.000667 2 3 cbr 1000 ------- 2 1.0 5.0 19 19
h 1.000667 3 6 cbr 1000 ------- 2 1.0 5.0 19 19
+ 1.000667 3 6 cbr 1000 ------- 2 1.0 5.0 18 18
- 1.000667 3 6 cbr 1000 ------- 2 1.0 5.0 18 18
d 1.000671 4 6 cbr 1000 ------- 2 1.0 5.0 18 18
r 1.000671 6 5 cbr 1000 ------- 2 1.0 5.0 17 17
r 1.01016 0 2 tcp 40 ------- 1 0.0 4.0 0 23
+ 1.01016 2 3 tcp 40 ------- 1 0.0 4.0 0 23
+ 1.02 1 2 cbr 1000 ------- 2 1.0 5.0 23 24
- 1.02 1 2 cbr 1000 ------- 2 1.0 5.0 23 24
- 1.020667 2 3 tcp 40 ------- 1 0.0 4.0 0 23
r 1.034 1 2 cbr 1000 ------- 2 1.0 5.0 23 24
+ 1.034 2 3 cbr 1000 ------- 2 1.0 5.0 23 24
- 1.034 2 3 cbr 1000 ------- 2 1.0 5.0 23 24
r 1.040667 2 3 cbr 1000 ------- 2 1.0 5.0 20 20
h 1.040667 3 6 cbr 1000 ------- 2 1.0 5.0 20 20
+ 1.040667 3 6 cbr 1000 ------- 2 1.0 5.0 19 19
- 1.040667 3 6 cbr 1000 ------- 2 1.0 5.0 19 19
r 1.040671 6 5 cbr 1000 ------- 2 1.0 5.0 18 18
d 1.040671 4 6 cbr 1000 ------- 2 1.0 5.0 19 19
+ 1.06 1 2 cbr 1000 ------- 2 1.0 5.0 24 25
- 1.06 1 2 cbr 1000 ------- 2 1.0 5.0 24 25
r 1.074 1 2 cbr 1000 ------- 2 1.0 5.0 24 25
+ 1.074 2 3 cbr 1000 ------- 2 1.0 5.0 24 25
- 1.074 2 3 cbr 1000 ------- 2 1.0 5.0 24 25
r 1.080667 2 3 cbr 1000 ------- 2 1.0 5.0 21 21
h 1.080667 3 6 cbr 1000 ------- 2 1.0 5.0 21 21
+ 1.080667 3 6 cbr 1000 ------- 2 1.0 5.0 20 20
- 1.080667 3 6 cbr 1000 ------- 2 1.0 5.0 20 20
r 1.080671 6 5 cbr 1000 ------- 2 1.0 5.0 19 19
d 1.080671 4 6 cbr 1000 ------- 2 1.0 5.0 20 20
+ 1.1 1 2 cbr 1000 ------- 2 1.0 5.0 25 26
- 1.1 1 2 cbr 1000 ------- 2 1.0 5.0 25 26
r 1.114 1 2 cbr 1000 ------- 2 1.0 5.0 25 26
+ 1.114 2 3 cbr 1000 ------- 2 1.0 5.0 25 26
- 1.114 2 3 cbr 1000 ------- 2 1.0 5.0 25 26
r 1.120667 2 3 cbr 1000 ------- 2 1.0 5.0 22 22
h 1.120667 3 6 cbr 1000 ------- 2 1.0 5.0 22 22
+ 1.120667 3 6 cbr 1000 ------- 2 1.0 5.0 21 21
- 1.120667 3 6 cbr 1000 ------- 2 1.0 5.0 21 21
r 1.120671 6 5 cbr 1000 ------- 2 1.0 5.0 20 20
d 1.120671 4 6 cbr 1000 ------- 2 1.0 5.0 21 21
r 1.121733 2 3 tcp 40 ------- 1 0.0 4.0 0 23
h 1.121733 3 6 tcp 40 ------- 1 0.0 4.0 0 23
+ 1.14 1 2 cbr 1000 ------- 2 1.0 5.0 26 27
- 1.14 1 2 cbr 1000 ------- 2 1.0 5.0 26 27
r 1.154 1 2 cbr 1000 ------- 2 1.0 5.0 26 27
+ 1.154 2 3 cbr 1000 ------- 2 1.0 5.0 26 27
- 1.154 2 3 cbr 1000 ------- 2 1.0 5.0 26 27
r 1.160667 2 3 cbr 1000 ------- 2 1.0 5.0 23 24
h 1.160667 3 6 cbr 1000 ------- 2 1.0 5.0 23 24
+ 1.160667 3 6 cbr 1000 ------- 2 1.0 5.0 22 22
- 1.160667 3 6 cbr 1000 ------- 2 1.0 5.0 22 22
r 1.160671 6 5 cbr 1000 ------- 2 1.0 5.0 21 21
d 1.160671 4 6 cbr 1000 ------- 2 1.0 5.0 22 22
+ 1.161733 3 6 tcp 40 ------- 1 0.0 4.0 0 23
- 1.164923 3 6 tcp 40 ------- 1 0.0 4.0 0 23
d 1.164927 5 6 tcp 40 ------- 1 0.0 4.0 0 23
+ 1.18 1 2 cbr 1000 ------- 2 1.0 5.0 27 28
- 1.18 1 2 cbr 1000 ------- 2 1.0 5.0 27 28
r 1.194 1 2 cbr 1000 ------- 2 1.0 5.0 27 28
+ 1.194 2 3 cbr 1000 ------- 2 1.0 5.0 27 28
- 1.194 2 3 cbr 1000 ------- 2 1.0 5.0 27 28
r 1.200667 2 3 cbr 1000 ------- 2 1.0 5.0 24 25
h 1.200667 3 6 cbr 1000 ------- 2 1.0 5.0 24 25
+ 1.200667 3 6 cbr 1000 ------- 2 1.0 5.0 23 24
- 1.200667 3 6 cbr 1000 ------- 2 1.0 5.0 23 24
r 1.200671 6 5 cbr 1000 ------- 2 1.0 5.0 22 22
d 1.200671 4 6 cbr 1000 ------- 2 1.0 5.0 23 24
r 1.204927 6 4 tcp 40 ------- 1 0.0 4.0 0 23
h 1.204927 4 6 ack 40 ------- 1 4.0 0.0 0 29
+ 1.22 1 2 cbr 1000 ------- 2 1.0 5.0 28 30
- 1.22 1 2 cbr 1000 ------- 2 1.0 5.0 28 30
r 1.234 1 2 cbr 1000 ------- 2 1.0 5.0 28 30
+ 1.234 2 3 cbr 1000 ------- 2 1.0 5.0 28 30
- 1.234 2 3 cbr 1000 ------- 2 1.0 5.0 28 30
r 1.240667 2 3 cbr 1000 ------- 2 1.0 5.0 25 26
h 1.240667 3 6 cbr 1000 ------- 2 1.0 5.0 25 26
+ 1.240667 3 6 cbr 1000 ------- 2 1.0 5.0 24 25
- 1.240667 3 6 cbr 1000 ------- 2 1.0 5.0 24 25
r 1.240671 6 5 cbr 1000 ------- 2 1.0 5.0 23 24
d 1.240671 4 6 cbr 1000 ------- 2 1.0 5.0 24 25
+ 1.244927 4 6 ack 40 ------- 1 4.0 0.0 0 29
- 1.244927 4 6 ack 40 ------- 1 4.0 0.0 0 29
d 1.244931 5 6 ack 40 ------- 1 4.0 0.0 0 29
+ 1.26 1 2 cbr 1000 ------- 2 1.0 5.0 29 31
- 1.26 1 2 cbr 1000 ------- 2 1.0 5.0 29 31
r 1.274 1 2 cbr 1000 ------- 2 1.0 5.0 29 31
+ 1.274 2 3 cbr 1000 ------- 2 1.0 5.0 29 31
- 1.274 2 3 cbr 1000 ------- 2 1.0 5.0 29 31
r 1.280667 2 3 cbr 1000 ------- 2 1.0 5.0 26 27
h 1.280667 3 6 cbr 1000 ------- 2 1.0 5.0 26 27
+ 1.280667 3 6 cbr 1000 ------- 2 1.0 5.0 25 26
- 1.280667 3 6 cbr 1000 ------- 2 1.0 5.0 25 26
r 1.280671 6 5 cbr 1000 ------- 2 1.0 5.0 24 25
d 1.280671 4 6 cbr 1000 ------- 2 1.0 5.0 25 26
r 1.284931 6 3 ack 40 ------- 1 4.0 0.0 0 29
+ 1.284931 3 2 ack 40 ------- 1 4.0 0.0 0 29
- 1.284931 3 2 ack 40 ------- 1 4.0 0.0 0 29
+ 1.3 1 2 cbr 1000 ------- 2 1.0 5.0 30 32
- 1.3 1 2 cbr 1000 ------- 2 1.0 5.0 30 32
r 1.314 1 2 cbr 1000 ------- 2 1.0 5.0 30 32
+ 1.314 2 3 cbr 1000 ------- 2 1.0 5.0 30 32
- 1.314 2 3 cbr 1000 ------- 2 1.0 5.0 30 32
r 1.320667 2 3 cbr 1000 ------- 2 1.0 5.0 27 28
h 1.320667 3 6 cbr 1000 ------- 2 1.0 5.0 27 28
+ 1.320667 3 6 cbr 1000 ------- 2 1.0 5.0 26 27
- 1.320667 3 6 cbr 1000 ------- 2 1.0 5.0 26 27
r 1.320671 6 5 cbr 1000 ------- 2 1.0 5.0 25 26
d 1.320671 4 6 cbr 1000 ------- 2 1.0 5.0 26 27
+ 1.34 1 2 cbr 1000 ------- 2 1.0 5.0 31 33
- 1.34 1 2 cbr 1000 ------- 2 1.0 5.0 31 33
r 1.354 1 2 cbr 1000 ------- 2 1.0 5.0 31 33
+ 1.354 2 3 cbr 1000 ------- 2 1.0 5.0 31 33
- 1.354 2 3 cbr 1000 ------- 2 1.0 5.0 31 33
r 1.360667 2 3 cbr 1000 ------- 2 1.0 5.0 28 30
h 1.360667 3 6 cbr 1000 ------- 2 1.0 5.0 28 30
+ 1.360667 3 6 cbr 1000 ------- 2 1.0 5.0 27 28
- 1.360667 3 6 cbr 1000 ------- 2 1.0 5.0 27 28
r 1.360671 6 5 cbr 1000 ------- 2 1.0 5.0 26 27
d 1.360671 4 6 cbr 1000 ------- 2 1.0 5.0 27 28
+ 1.38 1 2 cbr 1000 ------- 2 1.0 5.0 32 34
- 1.38 1 2 cbr 1000 ------- 2 1.0 5.0 32 34
r 1.385997 3 2 ack 40 ------- 1 4.0 0.0 0 29
+ 1.385997 2 0 ack 40 ------- 1 4.0 0.0 0 29
- 1.385997 2 0 ack 40 ------- 1 4.0 0.0 0 29
r 1.394 1 2 cbr 1000 ------- 2 1.0 5.0 32 34
+ 1.394 2 3 cbr 1000 ------- 2 1.0 5.0 32 34
- 1.394 2 3 cbr 1000 ------- 2 1.0 5.0 32 34
r 1.396157 2 0 ack 40 ------- 1 4.0 0.0 0 29
+ 1.396157 0 2 tcp 592 ------- 1 0.0 4.0 1 35
- 1.396157 0 2 tcp 592 ------- 1 0.0 4.0 1 35
+ 1.396157 0 2 tcp 592 ------- 1 0.0 4.0 2 36
- 1.398525 0 2 tcp 592 ------- 1 0.0 4.0 2 36
r 1.400667 2 3 cbr 1000 ------- 2 1.0 5.0 29 31
h 1.400667 3 6 cbr 1000 ------- 2 1.0 5.0 29 31
+ 1.400667 3 6 cbr 1000 ------- 2 1.0 5.0 28 30
- 1.400667 3 6 cbr 1000 ------- 2 1.0 5.0 28 30
r 1.400671 6 5 cbr 1000 ------- 2 1.0 5.0 27 28
d 1.400671 4 6 cbr 1000 ------- 2 1.0 5.0 28 30
r 1.408525 0 2 tcp 592 ------- 1 0.0 4.0 1 35
+ 1.408525 2 3 tcp 592 ------- 1 0.0 4.0 1 35
r 1.410893 0 2 tcp 592 ------- 1 0.0 4.0 2 36
+ 1.410893 2 3 tcp 592 ------- 1 0.0 4.0 2 36
+ 1.42 1 2 cbr 1000 ------- 2 1.0 5.0 33 37
- 1.42 1 2 cbr 1000 ------- 2 1.0 5.0 33 37
- 1.420667 2 3 tcp 592 ------- 1 0.0 4.0 1 35
r 1.434 1 2 cbr 1000 ------- 2 1.0 5.0 33 37
+ 1.434 2 3 cbr 1000 ------- 2 1.0 5.0 33 37
- 1.436453 2 3 tcp 592 ------- 1 0.0 4.0 2 36
r 1.440667 2 3 cbr 1000 ------- 2 1.0 5.0 30 32
h 1.440667 3 6 cbr 1000 ------- 2 1.0 5.0 30 32
+ 1.440667 3 6 cbr 1000 ------- 2 1.0 5.0 29 31
- 1.440667 3 6 cbr 1000 ------- 2 1.0 5.0 29 31
r 1.440671 6 5 cbr 1000 ------- 2 1.0 5.0 28 30
d 1.440671 4 6 cbr 1000 ------- 2 1.0 5.0 29 31
- 1.45224 2 3 cbr 1000 ------- 2 1.0 5.0 33 37
+ 1.46 1 2 cbr 1000 ------- 2 1.0 5.0 34 38
- 1.46 1 2 cbr 1000 ------- 2 1.0 5.0 34 38
r 1.474 1 2 cbr 1000 ------- 2 1.0 5.0 34 38
+ 1.474 2 3 cbr 1000 ------- 2 1.0 5.0 34 38
- 1.478907 2 3 cbr 1000 ------- 2 1.0 5.0 34 38
r 1.480667 2 3 cbr 1000 ------- 2 1.0 5.0 31 33
h 1.480667 3 6 cbr 1000 ------- 2 1.0 5.0 31 33
+ 1.480667 3 6 cbr 1000 ------- 2 1.0 5.0 30 32
- 1.480667 3 6 cbr 1000 ------- 2 1.0 5.0 30 32
r 1.480671 6 5 cbr 1000 ------- 2 1.0 5.0 29 31
d 1.480671 4 6 cbr 1000 ------- 2 1.0 5.0 30 32
+ 1.5 1 2 cbr 1000 ------- 2 1.0 5.0 35 39
- 1.5 1 2 cbr 1000 ------- 2 1.0 5.0 35 39
r 1.514 1 2 cbr 1000 ------- 2 1.0 5.0 35 39
+ 1.514 2 3 cbr 1000 ------- 2 1.0 5.0 35 39
- 1.514 2 3 cbr 1000 ------- 2 1.0 5.0 35 39
r 1.520667 2 3 cbr 1000 ------- 2 1.0 5.0 32 34
h 1.520667 3 6 cbr 1000 ------- 2 1.0 5.0 32 34
+ 1.520667 3 6 cbr 1000 ------- 2 1.0 5.0 31 33
- 1.520667 3 6 cbr 1000 ------- 2 1.0 5.0 31 33
r 1.520671 6 5 cbr 1000 ------- 2 1.0 5.0 30 32
d 1.520671 4 6 cbr 1000 ------- 2 1.0 5.0 31 33
r 1.536453 2 3 tcp 592 ------- 1 0.0 4.0 1 35
h 1.536453 3 6 tcp 592 ------- 1 0.0 4.0 1 35
+ 1.54 1 2 cbr 1000 ------- 2 1.0 5.0 36 40
- 1.54 1 2 cbr 1000 ------- 2 1.0 5.0 36 40
r 1.55224 2 3 tcp 592 ------- 1 0.0 4.0 2 36
h 1.55224 3 6 tcp 592 ------- 1 0.0 4.0 2 36
r 1.554 1 2 cbr 1000 ------- 2 1.0 5.0 36 40
+ 1.554 2 3 cbr 1000 ------- 2 1.0 5.0 36 40
- 1.554 2 3 cbr 1000 ------- 2 1.0 5.0 36 40
+ 1.560667 3 6 cbr 1000 ------- 2 1.0 5.0 32 34
- 1.560667 3 6 cbr 1000 ------- 2 1.0 5.0 32 34
r 1.560671 6 5 cbr 1000 ------- 2 1.0 5.0 31 33
d 1.560671 4 6 cbr 1000 ------- 2 1.0 5.0 32 34
+ 1.576453 3 6 tcp 592 ------- 1 0.0 4.0 1 35
- 1.576453 3 6 tcp 592 ------- 1 0.0 4.0 1 35
d 1.576457 5 6 tcp 592 ------- 1 0.0 4.0 1 35
r 1.578907 2 3 cbr 1000 ------- 2 1.0 5.0 33 37
h 1.578907 3 6 cbr 1000 ------- 2 1.0 5.0 33 37
+ 1.58 1 2 cbr 1000 ------- 2 1.0 5.0 37 41
- 1.58 1 2 cbr 1000 ------- 2 1.0 5.0 37 41
+ 1.59224 3 6 tcp 592 ------- 1 0.0 4.0 2 36
- 1.59224 3 6 tcp 592 ------- 1 0.0 4.0 2 36
d 1.592244 5 6 tcp 592 ------- 1 0.0 4.0 2 36
r 1.594 1 2 cbr 1000 ------- 2 1.0 5.0 37 41
+ 1.594 2 3 cbr 1000 ------- 2 1.0 5.0 37 41
- 1.594 2 3 cbr 1000 ------- 2 1.0 5.0 37 41
r 1.600671 6 5 cbr 1000 ------- 2 1.0 5.0 32 34
r 1.605573 2 3 cbr 1000 ------- 2 1.0 5.0 34 38
h 1.605573 3 6 cbr 1000 ------- 2 1.0 5.0 34 38
r 1.616457 6 4 tcp 592 ------- 1 0.0 4.0 1 35
+ 1.618907 3 6 cbr 1000 ------- 2 1.0 5.0 33 37
- 1.618907 3 6 cbr 1000 ------- 2 1.0 5.0 33 37
d 1.618911 4 6 cbr 1000 ------- 2 1.0 5.0 33 37
+ 1.62 1 2 cbr 1000 ------- 2 1.0 5.0 38 42
- 1.62 1 2 cbr 1000 ------- 2 1.0 5.0 38 42
r 1.632244 6 4 tcp 592 ------- 1 0.0 4.0 2 36
h 1.632244 4 6 ack 40 ------- 1 4.0 0.0 2 43
r 1.634 1 2 cbr 1000 ------- 2 1.0 5.0 38 42
+ 1.634 2 3 cbr 1000 ------- 2 1.0 5.0 38 42
- 1.634 2 3 cbr 1000 ------- 2 1.0 5.0 38 42
r 1.640667 2 3 cbr 1000 ------- 2 1.0 5.0 35 39
h 1.640667 3 6 cbr 1000 ------- 2 1.0 5.0 35 39
+ 1.645573 3 6 cbr 1000 ------- 2 1.0 5.0 34 38
- 1.645573 3 6 cbr 1000 ------- 2 1.0 5.0 34 38
d 1.645577 4 6 cbr 1000 ------- 2 1.0 5.0 34 38
r 1.658911 6 5 cbr 1000 ------- 2 1.0 5.0 33 37
+ 1.66 1 2 cbr 1000 ------- 2 1.0 5.0 39 44
- 1.66 1 2 cbr 1000 ------- 2 1.0 5.0 39 44
+ 1.672244 4 6 ack 40 ------- 1 4.0 0.0 2 43
- 1.672244 4 6 ack 40 ------- 1 4.0 0.0 2 43
d 1.672248 5 6 ack 40 ------- 1 4.0 0.0 2 43
r 1.674 1 2 cbr 1000 ------- 2 1.0 5.0 39 44
+ 1.674 2 3 cbr 1000 ------- 2 1.0 5.0 39 44
- 1.674 2 3 cbr 1000 ------- 2 1.0 5.0 39 44
r 1.680667 2 3 cbr 1000 ------- 2 1.0 5.0 36 40
h 1.680667 3 6 cbr 1000 ------- 2 1.0 5.0 36 40
+ 1.680667 3 6 cbr 1000 ------- 2 1.0 5.0 35 39
- 1.680667 3 6 cbr 1000 ------- 2 1.0 5.0 35 39
d 1.680671 4 6 cbr 1000 ------- 2 1.0 5.0 35 39
r 1.685577 6 5 cbr 1000 ------- 2 1.0 5.0 34 38
+ 1.7 1 2 cbr 1000 ------- 2 1.0 5.0 40 45
- 1.7 1 2 cbr 1000 ------- 2 1.0 5.0 40 45
r 1.712248 6 3 ack 40 ------- 1 4.0 0.0 2 43
+ 1.712248 3 2 ack 40 ------- 1 4.0 0.0 2 43
- 1.712248 3 2 ack 40 ------- 1 4.0 0.0 2 43
r 1.714 1 2 cbr 1000 ------- 2 1.0 5.0 40 45
+ 1.714 2 3 cbr 1000 ------- 2 1.0 5.0 40 45
- 1.714 2 3 cbr 1000 ------- 2 1.0 5.0 40 45
r 1.720667 2 3 cbr 1000 ------- 2 1.0 5.0 37 41
h 1.720667 3 6 cbr 1000 ------- 2 1.0 5.0 37 41
+ 1.720667 3 6 cbr 1000 ------- 2 1.0 5.0 36 40
- 1.720667 3 6 cbr 1000 ------- 2 1.0 5.0 36 40
r 1.720671 6 5 cbr 1000 ------- 2 1.0 5.0 35 39
d 1.720671 4 6 cbr 1000 ------- 2 1.0 5.0 36 40
+ 1.74 1 2 cbr 1000 ------- 2 1.0 5.0 41 46
- 1.74 1 2 cbr 1000 ------- 2 1.0 5.0 41 46
r 1.754 1 2 cbr 1000 ------- 2 1.0 5.0 41 46
+ 1.754 2 3 cbr 1000 ------- 2 1.0 5.0 41 46
- 1.754 2 3 cbr 1000 ------- 2 1.0 5.0 41 46
r 1.760667 2 3 cbr 1000 ------- 2 1.0 5.0 38 42
h 1.760667 3 6 cbr 1000 ------- 2 1.0 5.0 38 42
+ 1.760667 3 6 cbr 1000 ------- 2 1.0 5.0 37 41
- 1.760667 3 6 cbr 1000 ------- 2 1.0 5.0 37 41
r 1.760671 6 5 cbr 1000 ------- 2 1.0 5.0 36 40
d 1.760671 4 6 cbr 1000 ------- 2 1.0 5.0 37 41
+ 1.78 1 2 cbr 1000 ------- 2 1.0 5.0 42 47
- 1.78 1 2 cbr 1000 ------- 2 1.0 5.0 42 47
r 1.794 1 2 cbr 1000 ------- 2 1.0 5.0 42 47
+ 1.794 2 3 cbr 1000 ------- 2 1.0 5.0 42 47
- 1.794 2 3 cbr 1000 ------- 2 1.0 5.0 42 47
r 1.800667 2 3 cbr 1000 ------- 2 1.0 5.0 39 44
h 1.800667 3 6 cbr 1000 ------- 2 1.0 5.0 39 44
+ 1.800667 3 6 cbr 1000 ------- 2 1.0 5.0 38 42
- 1.800667 3 6 cbr 1000 ------- 2 1.0 5.0 38 42
r 1.800671 6 5 cbr 1000 ------- 2 1.0 5.0 37 41
d 1.800671 4 6 cbr 1000 ------- 2 1.0 5.0 38 42
r 1.813315 3 2 ack 40 ------- 1 4.0 0.0 2 43
+ 1.813315 2 0 ack 40 ------- 1 4.0 0.0 2 43
- 1.813315 2 0 ack 40 ------- 1 4.0 0.0 2 43
+ 1.82 1 2 cbr 1000 ------- 2 1.0 5.0 43 48
- 1.82 1 2 cbr 1000 ------- 2 1.0 5.0 43 48
r 1.823475 2 0 ack 40 ------- 1 4.0 0.0 2 43
+ 1.823475 0 2 tcp 592 ------- 1 0.0 4.0 3 49
- 1.823475 0 2 tcp 592 ------- 1 0.0 4.0 3 49
+ 1.823475 0 2 tcp 592 ------- 1 0.0 4.0 4 50
+ 1.823475 0 2 tcp 592 ------- 1 0.0 4.0 5 51
- 1.825843 0 2 tcp 592 ------- 1 0.0 4.0 4 50
- 1.828211 0 2 tcp 592 ------- 1 0.0 4.0 5 51
r 1.834 1 2 cbr 1000 ------- 2 1.0 5.0 43 48
+ 1.834 2 3 cbr 1000 ------- 2 1.0 5.0 43 48
- 1.834 2 3 cbr 1000 ------- 2 1.0 5.0 43 48
r 1.835843 0 2 tcp 592 ------- 1 0.0 4.0 3 49
+ 1.835843 2 3 tcp 592 ------- 1 0.0 4.0 3 49
r 1.838211 0 2 tcp 592 ------- 1 0.0 4.0 4 50
+ 1.838211 2 3 tcp 592 ------- 1 0.0 4.0 4 50
r 1.840579 0 2 tcp 592 ------- 1 0.0 4.0 5 51
+ 1.840579 2 3 tcp 592 ------- 1 0.0 4.0 5 51
r 1.840667 2 3 cbr 1000 ------- 2 1.0 5.0 40 45
h 1.840667 3 6 cbr 1000 ------- 2 1.0 5.0 40 45
+ 1.840667 3 6 cbr 1000 ------- 2 1.0 5.0 39 44
- 1.840667 3 6 cbr 1000 ------- 2 1.0 5.0 39 44
r 1.840671 6 5 cbr 1000 ------- 2 1.0 5.0 38 42
d 1.840671 4 6 cbr 1000 ------- 2 1.0 5.0 39 44
+ 1.86 1 2 cbr 1000 ------- 2 1.0 5.0 44 52
- 1.86 1 2 cbr 1000 ------- 2 1.0 5.0 44 52
- 1.860667 2 3 tcp 592 ------- 1 0.0 4.0 3 49
r 1.874 1 2 cbr 1000 ------- 2 1.0 5.0 44 52
+ 1.874 2 3 cbr 1000 ------- 2 1.0 5.0 44 52
- 1.876453 2 3 tcp 592 ------- 1 0.0 4.0 4 50
r 1.880667 2 3 cbr 1000 ------- 2 1.0 5.0 41 46
h 1.880667 3 6 cbr 1000 ------- 2 1.0 5.0 41 46
+ 1.880667 3 6 cbr 1000 ------- 2 1.0 5.0 40 45
- 1.880667 3 6 cbr 1000 ------- 2 1.0 5.0 40 45
r 1.880671 6 5 cbr 1000 ------- 2 1.0 5.0 39 44
d 1.880671 4 6 cbr 1000 ------- 2 1.0 5.0 40 45
- 1.89224 2 3 tcp 592 ------- 1 0.0 4.0 5 51
+ 1.9 1 2 cbr 1000 ------- 2 1.0 5.0 45 53
- 1.9 1 2 cbr 1000 ------- 2 1.0 5.0 45 53
- 1.908027 2 3 cbr 1000 ------- 2 1.0 5.0 44 52
r 1.914 1 2 cbr 1000 ------- 2 1.0 5.0 45 53
+ 1.914 2 3 cbr 1000 ------- 2 1.0 5.0 45 53
r 1.920667 2 3 cbr 1000 ------- 2 1.0 5.0 42 47
h 1.920667 3 6 cbr 1000 ------- 2 1.0 5.0 42 47
+ 1.920667 3 6 cbr 1000 ------- 2 1.0 5.0 41 46
- 1.920667 3 6 cbr 1000 ------- 2 1.0 5.0 41 46
r 1.920671 6 5 cbr 1000 ------- 2 1.0 5.0 40 45
d 1.920671 4 6 cbr 1000 ------- 2 1.0 5.0 41 46
- 1.934693 2 3 cbr 1000 ------- 2 1.0 5.0 45 53
+ 1.94 1 2 cbr 1000 ------- 2 1.0 5.0 46 54
- 1.94 1 2 cbr 1000 ------- 2 1.0 5.0 46 54
r 1.954 1 2 cbr 1000 ------- 2 1.0 5.0 46 54
+ 1.954 2 3 cbr 1000 ------- 2 1.0 5.0 46 54
r 1.960667 2 3 cbr 1000 ------- 2 1.0 5.0 43 48
h 1.960667 3 6 cbr 1000 ------- 2 1.0 5.0 43 48
+ 1.960667 3 6 cbr 1000 ------- 2 1.0 5.0 42 47
- 1.960667 3 6 cbr 1000 ------- 2 1.0 5.0 42 47
r 1.960671 6 5 cbr 1000 ------- 2 1.0 5.0 41 46
d 1.960671 4 6 cbr 1000 ------- 2 1.0 5.0 42 47
- 1.96136 2 3 cbr 1000 ------- 2 1.0 5.0 46 54
r 1.976453 2 3 tcp 592 ------- 1 0.0 4.0 3 49
h 1.976453 3 6 tcp 592 ------- 1 0.0 4.0 3 49
+ 1.98 1 2 cbr 1000 ------- 2 1.0 5.0 47 55
- 1.98 1 2 cbr 1000 ------- 2 1.0 5.0 47 55
r 1.99224 2 3 tcp 592 ------- 1 0.0 4.0 4 50
h 1.99224 3 6 tcp 592 ------- 1 0.0 4.0 4 50
r 1.994 1 2 cbr 1000 ------- 2 1.0 5.0 47 55
+ 1.994 2 3 cbr 1000 ------- 2 1.0 5.0 47 55
- 1.994 2 3 cbr 1000 ------- 2 1.0 5.0 47 55
+ 2.000667 3 6 cbr 1000 ------- 2 1.0 5.0 43 48
- 2.000667 3 6 cbr 1000 ------- 2 1.0 5.0 43 48
r 2.000671 6 5 cbr 1000 ------- 2 1.0 5.0 42 47
d 2.000671 4 6 cbr 1000 ------- 2 1.0 5.0 43 48
r 2.008027 2 3 tcp 592 ------- 1 0.0 4.0 5 51
h 2.008027 3 6 tcp 592 ------- 1 0.0 4.0 5 51
+ 2.016453 3 6 tcp 592 ------- 1 0.0 4.0 3 49
- 2.016453 3 6 tcp 592 ------- 1 0.0 4.0 3 49
d 2.016457 5 6 tcp 592 ------- 1 0.0 4.0 3 49
+ 2.02 1 2 cbr 1000 ------- 2 1.0 5.0 48 56
- 2.02 1 2 cbr 1000 ------- 2 1.0 5.0 48 56
+ 2.03224 3 6 tcp 592 ------- 1 0.0 4.0 4 50
- 2.03224 3 6 tcp 592 ------- 1 0.0 4.0 4 50
d 2.032244 5 6 tcp 592 ------- 1 0.0 4.0 4 50
r 2.034 1 2 cbr 1000 ------- 2 1.0 5.0 48 56
+ 2.034 2 3 cbr 1000 ------- 2 1.0 5.0 48 56
- 2.034 2 3 cbr 1000 ------- 2 1.0 5.0 48 56
r 2.034693 2 3 cbr 1000 ------- 2 1.0 5.0 44 52
h 2.034693 3 6 cbr 1000 ------- 2 1.0 5.0 44 52
r 2.040671 6 5 cbr 1000 ------- 2 1.0 5.0 43 48
+ 2.048027 3 6 tcp 592 ------- 1 0.0 4.0 5 51
- 2.048027 3 6 tcp 592 ------- 1 0.0 4.0 5 51
d 2.048031 5 6 tcp 592 ------- 1 0.0 4.0 5 51
r 2.056457 6 4 tcp 592 ------- 1 0.0 4.0 3 49
+ 2.06 1 2 cbr 1000 ------- 2 1.0 5.0 49 57
- 2.06 1 2 cbr 1000 ------- 2 1.0 5.0 49 57
r 2.06136 2 3 cbr 1000 ------- 2 1.0 5.0 45 53
h 2.06136 3 6 cbr 1000 ------- 2 1.0 5.0 45 53
r 2.072244 6 4 tcp 592 ------- 1 0.0 4.0 4 50
h 2.072244 4 6 ack 40 ------- 1 4.0 0.0 4 58
r 2.074 1 2 cbr 1000 ------- 2 1.0 5.0 49 57
+ 2.074 2 3 cbr 1000 ------- 2 1.0 5.0 49 57
- 2.074 2 3 cbr 1000 ------- 2 1.0 5.0 49 57
+ 2.074693 3 6 cbr 1000 ------- 2 1.0 5.0 44 52
- 2.074693 3 6 cbr 1000 ------- 2 1.0 5.0 44 52
d 2.074697 4 6 cbr 1000 ------- 2 1.0 5.0 44 52
r 2.088027 2 3 cbr 1000 ------- 2 1.0 5.0 46 54
h 2.088027 3 6 cbr 1000 ------- 2 1.0 5.0 46 54
r 2.088031 6 4 tcp 592 ------- 1 0.0 4.0 5 51
+ 2.1 1 2 cbr 1000 ------- 2 1.0 5.0 50 59
- 2.1 1 2 cbr 1000 ------- 2 1.0 5.0 50 59
+ 2.10136 3 6 cbr 1000 ------- 2 1.0 5.0 45 53
- 2.10136 3 6 cbr 1000 ------- 2 1.0 5.0 45 53
d 2.101364 4 6 cbr 1000 ------- 2 1.0 5.0 45 53
+ 2.112244 4 6 ack 40 ------- 1 4.0 0.0 4 58
- 2.112244 4 6 ack 40 ------- 1 4.0 0.0 4 58
d 2.112248 5 6 ack 40 ------- 1 4.0 0.0 4 58
r 2.114 1 2 cbr 1000 ------- 2 1.0 5.0 50 59
+ 2.114 2 3 cbr 1000 ------- 2 1.0 5.0 50 59
- 2.114 2 3 cbr 1000 ------- 2 1.0 5.0 50 59
r 2.114697 6 5 cbr 1000 ------- 2 1.0 5.0 44 52
r 2.120667 2 3 cbr 1000 ------- 2 1.0 5.0 47 55
h 2.120667 3 6 cbr 1000 ------- 2 1.0 5.0 47 55
+ 2.128027 3 6 cbr 1000 ------- 2 1.0 5.0 46 54
- 2.128027 3 6 cbr 1000 ------- 2 1.0 5.0 46 54
d 2.128031 4 6 cbr 1000 ------- 2 1.0 5.0 46 54
+ 2.14 1 2 cbr 1000 ------- 2 1.0 5.0 51 60
- 2.14 1 2 cbr 1000 ------- 2 1.0 5.0 51 60
r 2.141364 6 5 cbr 1000 ------- 2 1.0 5.0 45 53
r 2.152248 6 3 ack 40 ------- 1 4.0 0.0 4 58
+ 2.152248 3 2 ack 40 ------- 1 4.0 0.0 4 58
- 2.152248 3 2 ack 40 ------- 1 4.0 0.0 4 58
r 2.154 1 2 cbr 1000 ------- 2 1.0 5.0 51 60
+ 2.154 2 3 cbr 1000 ------- 2 1.0 5.0 51 60
- 2.154 2 3 cbr 1000 ------- 2 1.0 5.0 51 60
r 2.160667 2 3 cbr 1000 ------- 2 1.0 5.0 48 56
h 2.160667 3 6 cbr 1000 ------- 2 1.0 5.0 48 56
+ 2.160667 3 6 cbr 1000 ------- 2 1.0 5.0 47 55
- 2.160667 3 6 cbr 1000 ------- 2 1.0 5.0 47 55
d 2.160671 4 6 cbr 1000 ------- 2 1.0 5.0 47 55
r 2.168031 6 5 cbr 1000 ------- 2 1.0 5.0 46 54
+ 2.18 1 2 cbr 1000 ------- 2 1.0 5.0 52 61
- 2.18 1 2 cbr 1000 ------- 2 1.0 5.0 52 61
h 2.188031 4 6 ack 40 ------- 1 4.0 0.0 5 62
r 2.194 1 2 cbr 1000 ------- 2 1.0 5.0 52 61
+ 2.194 2 3 cbr 1000 ------- 2 1.0 5.0 52 61
- 2.194 2 3 cbr 1000 ------- 2 1.0 5.0 52 61
r 2.200667 2 3 cbr 1000 ------- 2 1.0 5.0 49 57
h 2.200667 3 6 cbr 1000 ------- 2 1.0 5.0 49 57
+ 2.200667 3 6 cbr 1000 ------- 2 1.0 5.0 48 56
- 2.200667 3 6 cbr 1000 ------- 2 1.0 5.0 48 56