+ 0.5 0 2 tcp 40 ------- 0 0.0 3.0 0 0
- 0.5 0 2 tcp 40 ------- 0 0.0 3.0 0 0
r 0.51016 0 2 tcp 40 ------- 0 0.0 3.0 0 0
+ 0.51016 2 3 tcp 40 ------- 0 0.0 3.0 0 0
- 0.51016 2 3 tcp 40 ------- 0 0.0 3.0 0 0
r 0.520516 2 3 tcp 40 ------- 0 0.0 3.0 0 0
+ 0.520516 3 2 ack 40 ------- 0 3.0 0.0 0 1
- 0.520516 3 2 ack 40 ------- 0 3.0 0.0 0 1
r 0.530871 3 2 ack 40 ------- 0 3.0 0.0 0 1
+ 0.530871 2 0 ack 40 ------- 0 3.0 0.0 0 1
- 0.530871 2 0 ack 40 ------- 0 3.0 0.0 0 1
r 0.541031 2 0 ack 40 ------- 0 3.0 0.0 0 1
+ 0.541031 0 2 tcp 1040 ------- 0 0.0 3.0 1 2
- 0.541031 0 2 tcp 1040 ------- 0 0.0 3.0 1 2
+ 0.541031 0 2 tcp 1040 ------- 0 0.0 3.0 2 3
- 0.545191 0 2 tcp 1040 ------- 0 0.0 3.0 2 3
r 0.555191 0 2 tcp 1040 ------- 0 0.0 3.0 1 2
+ 0.555191 2 3 tcp 1040 ------- 0 0.0 3.0 1 2
- 0.555191 2 3 tcp 1040 ------- 0 0.0 3.0 1 2
r 0.559351 0 2 tcp 1040 ------- 0 0.0 3.0 2 3
+ 0.559351 2 3 tcp 1040 ------- 0 0.0 3.0 2 3
- 0.564436 2 3 tcp 1040 ------- 0 0.0 3.0 2 3
r 0.574436 2 3 tcp 1040 ------- 0 0.0 3.0 1 2
+ 0.574436 3 2 ack 40 ------- 0 3.0 0.0 1 4
- 0.574436 3 2 ack 40 ------- 0 3.0 0.0 1 4
r 0.58368 2 3 tcp 1040 ------- 0 0.0 3.0 2 3
+ 0.58368 3 2 ack 40 ------- 0 3.0 0.0 2 5
- 0.58368 3 2 ack 40 ------- 0 3.0 0.0 2 5
r 0.584791 3 2 ack 40 ------- 0 3.0 0.0 1 4
+ 0.584791 2 0 ack 40 ------- 0 3.0 0.0 1 4
- 0.584791 2 0 ack 40 ------- 0 3.0 0.0 1 4
r 0.594036 3 2 ack 40 ------- 0 3.0 0.0 2 5
+ 0.594036 2 0 ack 40 ------- 0 3.0 0.0 2 5
- 0.594036 2 0 ack 40 ------- 0 3.0 0.0 2 5
r 0.594951 2 0 ack 40 ------- 0 3.0 0.0 1 4
+ 0.594951 0 2 tcp 1040 ------- 0 0.0 3.0 3 6
- 0.594951 0 2 tcp 1040 ------- 0 0.0 3.0 3 6
+ 0.594951 0 2 tcp 1040 ------- 0 0.0 3.0 4 7
- 0.599111 0 2 tcp 1040 ------- 0 0.0 3.0 4 7
r 0.604196 2 0 ack 40 ------- 0 3.0 0.0 2 5
+ 0.604196 0 2 tcp 1040 ------- 0 0.0 3.0 5 8
- 0.604196 0 2 tcp 1040 ------- 0 0.0 3.0 5 8
+ 0.604196 0 2 tcp 1040 ------- 0 0.0 3.0 6 9
- 0.608356 0 2 tcp 1040 ------- 0 0.0 3.0 6 9
r 0.609111 0 2 tcp 1040 ------- 0 0.0 3.0 3 6
+ 0.609111 2 3 tcp 1040 ------- 0 0.0 3.0 3 6
- 0.609111 2 3 tcp 1040 ------- 0 0.0 3.0 3 6
r 0.613271 0 2 tcp 1040 ------- 0 0.0 3.0 4 7
+ 0.613271 2 3 tcp 1040 ------- 0 0.0 3.0 4 7
r 0.618356 0 2 tcp 1040 ------- 0 0.0 3.0 5 8
+ 0.618356 2 3 tcp 1040 ------- 0 0.0 3.0 5 8
- 0.618356 2 3 tcp 1040 ------- 0 0.0 3.0 4 7
r 0.622516 0 2 tcp 1040 ------- 0 0.0 3.0 6 9
+ 0.622516 2 3 tcp 1040 ------- 0 0.0 3.0 6 9
- 0.6276 2 3 tcp 1040 ------- 0 0.0 3.0 5 8
r 0.628356 2 3 tcp 1040 ------- 0 0.0 3.0 3 6
+ 0.628356 3 2 ack 40 ------- 0 3.0 0.0 3 10
- 0.628356 3 2 ack 40 ------- 0 3.0 0.0 3 10
- 0.636844 2 3 tcp 1040 ------- 0 0.0 3.0 6 9
r 0.6376 2 3 tcp 1040 ------- 0 0.0 3.0 4 7
+ 0.6376 3 2 ack 40 ------- 0 3.0 0.0 4 11
- 0.6376 3 2 ack 40 ------- 0 3.0 0.0 4 11
r 0.638711 3 2 ack 40 ------- 0 3.0 0.0 3 10
+ 0.638711 2 0 ack 40 ------- 0 3.0 0.0 3 10
- 0.638711 2 0 ack 40 ------- 0 3.0 0.0 3 10
r 0.646844 2 3 tcp 1040 ------- 0 0.0 3.0 5 8
+ 0.646844 3 2 ack 40 ------- 0 3.0 0.0 5 12
- 0.646844 3 2 ack 40 ------- 0 3.0 0.0 5 12
r 0.647956 3 2 ack 40 ------- 0 3.0 0.0 4 11
+ 0.647956 2 0 ack 40 ------- 0 3.0 0.0 4 11
- 0.647956 2 0 ack 40 ------- 0 3.0 0.0 4 11
r 0.648871 2 0 ack 40 ------- 0 3.0 0.0 3 10
+ 0.648871 0 2 tcp 1040 ------- 0 0.0 3.0 7 13
- 0.648871 0 2 tcp 1040 ------- 0 0.0 3.0 7 13
+ 0.648871 0 2 tcp 1040 ------- 0 0.0 3.0 8 14
- 0.653031 0 2 tcp 1040 ------- 0 0.0 3.0 8 14
r 0.656089 2 3 tcp 1040 ------- 0 0.0 3.0 6 9
+ 0.656089 3 2 ack 40 ------- 0 3.0 0.0 6 15
- 0.656089 3 2 ack 40 ------- 0 3.0 0.0 6 15
r 0.6572 3 2 ack 40 ------- 0 3.0 0.0 5 12
+ 0.6572 2 0 ack 40 ------- 0 3.0 0.0 5 12
- 0.6572 2 0 ack 40 ------- 0 3.0 0.0 5 12
r 0.658116 2 0 ack 40 ------- 0 3.0 0.0 4 11
+ 0.658116 0 2 tcp 1040 ------- 0 0.0 3.0 9 16
- 0.658116 0 2 tcp 1040 ------- 0 0.0 3.0 9 16
+ 0.658116 0 2 tcp 1040 ------- 0 0.0 3.0 10 17
- 0.662276 0 2 tcp 1040 ------- 0 0.0 3.0 10 17
r 0.663031 0 2 tcp 1040 ------- 0 0.0 3.0 7 13
+ 0.663031 2 3 tcp 1040 ------- 0 0.0 3.0 7 13
- 0.663031 2 3 tcp 1040 ------- 0 0.0 3.0 7 13
r 0.666444 3 2 ack 40 ------- 0 3.0 0.0 6 15
+ 0.666444 2 0 ack 40 ------- 0 3.0 0.0 6 15
- 0.666444 2 0 ack 40 ------- 0 3.0 0.0 6 15
r 0.667191 0 2 tcp 1040 ------- 0 0.0 3.0 8 14
+ 0.667191 2 3 tcp 1040 ------- 0 0.0 3.0 8 14
r 0.66736 2 0 ack 40 ------- 0 3.0 0.0 5 12
+ 0.66736 0 2 tcp 1040 ------- 0 0.0 3.0 11 18
- 0.66736 0 2 tcp 1040 ------- 0 0.0 3.0 11 18
+ 0.66736 0 2 tcp 1040 ------- 0 0.0 3.0 12 19
- 0.67152 0 2 tcp 1040 ------- 0 0.0 3.0 12 19
- 0.672276 2 3 tcp 1040 ------- 0 0.0 3.0 8 14
r 0.672276 0 2 tcp 1040 ------- 0 0.0 3.0 9 16
+ 0.672276 2 3 tcp 1040 ------- 0 0.0 3.0 9 16
r 0.676436 0 2 tcp 1040 ------- 0 0.0 3.0 10 17
+ 0.676436 2 3 tcp 1040 ------- 0 0.0 3.0 10 17
r 0.676604 2 0 ack 40 ------- 0 3.0 0.0 6 15
+ 0.676604 0 2 tcp 1040 ------- 0 0.0 3.0 13 20
- 0.676604 0 2 tcp 1040 ------- 0 0.0 3.0 13 20
+ 0.676604 0 2 tcp 1040 ------- 0 0.0 3.0 14 21
- 0.680764 0 2 tcp 1040 ------- 0 0.0 3.0 14 21
- 0.68152 2 3 tcp 1040 ------- 0 0.0 3.0 9 16
r 0.68152 0 2 tcp 1040 ------- 0 0.0 3.0 11 18
+ 0.68152 2 3 tcp 1040 ------- 0 0.0 3.0 11 18
r 0.682276 2 3 tcp 1040 ------- 0 0.0 3.0 7 13
+ 0.682276 3 2 ack 40 ------- 0 3.0 0.0 7 22
- 0.682276 3 2 ack 40 ------- 0 3.0 0.0 7 22
r 0.68568 0 2 tcp 1040 ------- 0 0.0 3.0 12 19
+ 0.68568 2 3 tcp 1040 ------- 0 0.0 3.0 12 19
- 0.690764 2 3 tcp 1040 ------- 0 0.0 3.0 10 17
r 0.690764 0 2 tcp 1040 ------- 0 0.0 3.0 13 20
+ 0.690764 2 3 tcp 1040 ------- 0 0.0 3.0 13 20
r 0.69152 2 3 tcp 1040 ------- 0 0.0 3.0 8 14
+ 0.69152 3 2 ack 40 ------- 0 3.0 0.0 8 23
- 0.69152 3 2 ack 40 ------- 0 3.0 0.0 8 23
r 0.692631 3 2 ack 40 ------- 0 3.0 0.0 7 22
+ 0.692631 2 0 ack 40 ------- 0 3.0 0.0 7 22
- 0.692631 2 0 ack 40 ------- 0 3.0 0.0 7 22
r 0.694924 0 2 tcp 1040 ------- 0 0.0 3.0 14 21
+ 0.694924 2 3 tcp 1040 ------- 0 0.0 3.0 14 21
- 0.700009 2 3 tcp 1040 ------- 0 0.0 3.0 11 18
r 0.700764 2 3 tcp 1040 ------- 0 0.0 3.0 9 16
+ 0.700764 3 2 ack 40 ------- 0 3.0 0.0 9 24
- 0.700764 3 2 ack 40 ------- 0 3.0 0.0 9 24
r 0.701876 3 2 ack 40 ------- 0 3.0 0.0 8 23
+ 0.701876 2 0 ack 40 ------- 0 3.0 0.0 8 23
- 0.701876 2 0 ack 40 ------- 0 3.0 0.0 8 23
r 0.702791 2 0 ack 40 ------- 0 3.0 0.0 7 22
+ 0.702791 0 2 tcp 1040 ------- 0 0.0 3.0 15 25
- 0.702791 0 2 tcp 1040 ------- 0 0.0 3.0 15 25
+ 0.702791 0 2 tcp 1040 ------- 0 0.0 3.0 16 26
- 0.706951 0 2 tcp 1040 ------- 0 0.0 3.0 16 26
- 0.709253 2 3 tcp 1040 ------- 0 0.0 3.0 12 19
r 0.710009 2 3 tcp 1040 ------- 0 0.0 3.0 10 17
+ 0.710009 3 2 ack 40 ------- 0 3.0 0.0 10 27
- 0.710009 3 2 ack 40 ------- 0 3.0 0.0 10 27
r 0.71112 3 2 ack 40 ------- 0 3.0 0.0 9 24
+ 0.71112 2 0 ack 40 ------- 0 3.0 0.0 9 24
- 0.71112 2 0 ack 40 ------- 0 3.0 0.0 9 24
r 0.712036 2 0 ack 40 ------- 0 3.0 0.0 8 23
+ 0.712036 0 2 tcp 1040 ------- 0 0.0 3.0 17 28
- 0.712036 0 2 tcp 1040 ------- 0 0.0 3.0 17 28
+ 0.712036 0 2 tcp 1040 ------- 0 0.0 3.0 18 29
- 0.716196 0 2 tcp 1040 ------- 0 0.0 3.0 18 29
r 0.716951 0 2 tcp 1040 ------- 0 0.0 3.0 15 25
+ 0.716951 2 3 tcp 1040 ------- 0 0.0 3.0 15 25
- 0.718498 2 3 tcp 1040 ------- 0 0.0 3.0 13 20
r 0.719253 2 3 tcp 1040 ------- 0 0.0 3.0 11 18
+ 0.719253 3 2 ack 40 ------- 0 3.0 0.0 11 30
- 0.719253 3 2 ack 40 ------- 0 3.0 0.0 11 30
r 0.720364 3 2 ack 40 ------- 0 3.0 0.0 10 27
+ 0.720364 2 0 ack 40 ------- 0 3.0 0.0 10 27
- 0.720364 2 0 ack 40 ------- 0 3.0 0.0 10 27
r 0.721111 0 2 tcp 1040 ------- 0 0.0 3.0 16 26
+ 0.721111 2 3 tcp 1040 ------- 0 0.0 3.0 16 26
r 0.72128 2 0 ack 40 ------- 0 3.0 0.0 9 24
+ 0.72128 0 2 tcp 1040 ------- 0 0.0 3.0 19 31
- 0.72128 0 2 tcp 1040 ------- 0 0.0 3.0 19 31
+ 0.72128 0 2 tcp 1040 ------- 0 0.0 3.0 20 32
- 0.72544 0 2 tcp 1040 ------- 0 0.0 3.0 20 32
r 0.726196 0 2 tcp 1040 ------- 0 0.0 3.0 17 28
+ 0.726196 2 3 tcp 1040 ------- 0 0.0 3.0 17 28
- 0.727742 2 3 tcp 1040 ------- 0 0.0 3.0 14 21
r 0.728498 2 3 tcp 1040 ------- 0 0.0 3.0 12 19
+ 0.728498 3 2 ack 40 ------- 0 3.0 0.0 12 33
- 0.728498 3 2 ack 40 ------- 0 3.0 0.0 12 33
r 0.729609 3 2 ack 40 ------- 0 3.0 0.0 11 30
+ 0.729609 2 0 ack 40 ------- 0 3.0 0.0 11 30
- 0.729609 2 0 ack 40 ------- 0 3.0 0.0 11 30
r 0.730356 0 2 tcp 1040 ------- 0 0.0 3.0 18 29
+ 0.730356 2 3 tcp 1040 ------- 0 0.0 3.0 18 29
r 0.730524 2 0 ack 40 ------- 0 3.0 0.0 10 27
+ 0.730524 0 2 tcp 1040 ------- 0 0.0 3.0 21 34
- 0.730524 0 2 tcp 1040 ------- 0 0.0 3.0 21 34
+ 0.730524 0 2 tcp 1040 ------- 0 0.0 3.0 22 35
- 0.734684 0 2 tcp 1040 ------- 0 0.0 3.0 22 35
r 0.73544 0 2 tcp 1040 ------- 0 0.0 3.0 19 31
+ 0.73544 2 3 tcp 1040 ------- 0 0.0 3.0 19 31
- 0.736987 2 3 tcp 1040 ------- 0 0.0 3.0 15 25
r 0.737742 2 3 tcp 1040 ------- 0 0.0 3.0 13 20
+ 0.737742 3 2 ack 40 ------- 0 3.0 0.0 13 36
- 0.737742 3 2 ack 40 ------- 0 3.0 0.0 13 36
r 0.738853 3 2 ack 40 ------- 0 3.0 0.0 12 33
+ 0.738853 2 0 ack 40 ------- 0 3.0 0.0 12 33
- 0.738853 2 0 ack 40 ------- 0 3.0 0.0 12 33
r 0.7396 0 2 tcp 1040 ------- 0 0.0 3.0 20 32
+ 0.7396 2 3 tcp 1040 ------- 0 0.0 3.0 20 32
r 0.739769 2 0 ack 40 ------- 0 3.0 0.0 11 30
+ 0.739769 0 2 tcp 1040 ------- 0 0.0 3.0 23 37
- 0.739769 0 2 tcp 1040 ------- 0 0.0 3.0 23 37
+ 0.739769 0 2 tcp 1040 ------- 0 0.0 3.0 24 38
- 0.743929 0 2 tcp 1040 ------- 0 0.0 3.0 24 38
r 0.744684 0 2 tcp 1040 ------- 0 0.0 3.0 21 34
+ 0.744684 2 3 tcp 1040 ------- 0 0.0 3.0 21 34
- 0.746231 2 3 tcp 1040 ------- 0 0.0 3.0 16 26
r 0.746987 2 3 tcp 1040 ------- 0 0.0 3.0 14 21
+ 0.746987 3 2 ack 40 ------- 0 3.0 0.0 14 39
- 0.746987 3 2 ack 40 ------- 0 3.0 0.0 14 39
r 0.748098 3 2 ack 40 ------- 0 3.0 0.0 13 36
+ 0.748098 2 0 ack 40 ------- 0 3.0 0.0 13 36
- 0.748098 2 0 ack 40 ------- 0 3.0 0.0 13 36
r 0.748844 0 2 tcp 1040 ------- 0 0.0 3.0 22 35
+ 0.748844 2 3 tcp 1040 ------- 0 0.0 3.0 22 35
r 0.749013 2 0 ack 40 ------- 0 3.0 0.0 12 33
+ 0.749013 0 2 tcp 1040 ------- 0 0.0 3.0 25 40
- 0.749013 0 2 tcp 1040 ------- 0 0.0 3.0 25 40
+ 0.749013 0 2 tcp 1040 ------- 0 0.0 3.0 26 41
- 0.753173 0 2 tcp 1040 ------- 0 0.0 3.0 26 41
r 0.753929 0 2 tcp 1040 ------- 0 0.0 3.0 23 37
+ 0.753929 2 3 tcp 1040 ------- 0 0.0 3.0 23 37
- 0.755476 2 3 tcp 1040 ------- 0 0.0 3.0 17 28
r 0.756231 2 3 tcp 1040 ------- 0 0.0 3.0 15 25
+ 0.756231 3 2 ack 40 ------- 0 3.0 0.0 15 42
- 0.756231 3 2 ack 40 ------- 0 3.0 0.0 15 42
r 0.757342 3 2 ack 40 ------- 0 3.0 0.0 14 39
+ 0.757342 2 0 ack 40 ------- 0 3.0 0.0 14 39
- 0.757342 2 0 ack 40 ------- 0 3.0 0.0 14 39
r 0.758089 0 2 tcp 1040 ------- 0 0.0 3.0 24 38
+ 0.758089 2 3 tcp 1040 ------- 0 0.0 3.0 24 38
r 0.758258 2 0 ack 40 ------- 0 3.0 0.0 13 36
+ 0.758258 0 2 tcp 1040 ------- 0 0.0 3.0 27 43
- 0.758258 0 2 tcp 1040 ------- 0 0.0 3.0 27 43
+ 0.758258 0 2 tcp 1040 ------- 0 0.0 3.0 28 44
- 0.762418 0 2 tcp 1040 ------- 0 0.0 3.0 28 44
r 0.763173 0 2 tcp 1040 ------- 0 0.0 3.0 25 40
+ 0.763173 2 3 tcp 1040 ------- 0 0.0 3.0 25 40
- 0.76472 2 3 tcp 1040 ------- 0 0.0 3.0 18 29
r 0.765476 2 3 tcp 1040 ------- 0 0.0 3.0 16 26
+ 0.765476 3 2 ack 40 ------- 0 3.0 0.0 16 45
- 0.765476 3 2 ack 40 ------- 0 3.0 0.0 16 45
r 0.766587 3 2 ack 40 ------- 0 3.0 0.0 15 42
+ 0.766587 2 0 ack 40 ------- 0 3.0 0.0 15 42
- 0.766587 2 0 ack 40 ------- 0 3.0 0.0 15 42
r 0.767333 0 2 tcp 1040 ------- 0 0.0 3.0 26 41
+ 0.767333 2 3 tcp 1040 ------- 0 0.0 3.0 26 41
r 0.767502 2 0 ack 40 ------- 0 3.0 0.0 14 39
+ 0.767502 0 2 tcp 1040 ------- 0 0.0 3.0 29 46
- 0.767502 0 2 tcp 1040 ------- 0 0.0 3.0 29 46
+ 0.767502 0 2 tcp 1040 ------- 0 0.0 3.0 30 47
- 0.771662 0 2 tcp 1040 ------- 0 0.0 3.0 30 47
r 0.772418 0 2 tcp 1040 ------- 0 0.0 3.0 27 43
+ 0.772418 2 3 tcp 1040 ------- 0 0.0 3.0 27 43
- 0.773964 2 3 tcp 1040 ------- 0 0.0 3.0 19 31
r 0.77472 2 3 tcp 1040 ------- 0 0.0 3.0 17 28
+ 0.77472 3 2 ack 40 ------- 0 3.0 0.0 17 48
- 0.77472 3 2 ack 40 ------- 0 3.0 0.0 17 48
r 0.775831 3 2 ack 40 ------- 0 3.0 0.0 16 45
+ 0.775831 2 0 ack 40 ------- 0 3.0 0.0 16 45
- 0.775831 2 0 ack 40 ------- 0 3.0 0.0 16 45
r 0.776578 0 2 tcp 1040 ------- 0 0.0 3.0 28 44
+ 0.776578 2 3 tcp 1040 ------- 0 0.0 3.0 28 44
r 0.776747 2 0 ack 40 ------- 0 3.0 0.0 15 42
+ 0.776747 0 2 tcp 1040 ------- 0 0.0 3.0 31 49
- 0.776747 0 2 tcp 1040 ------- 0 0.0 3.0 31 49
+ 0.776747 0 2 tcp 1040 ------- 0 0.0 3.0 32 50
- 0.780907 0 2 tcp 1040 ------- 0 0.0 3.0 32 50
r 0.781662 0 2 tcp 1040 ------- 0 0.0 3.0 29 46
+ 0.781662 2 3 tcp 1040 ------- 0 0.0 3.0 29 46
- 0.783209 2 3 tcp 1040 ------- 0 0.0 3.0 20 32
r 0.783964 2 3 tcp 1040 ------- 0 0.0 3.0 18 29
+ 0.783964 3 2 ack 40 ------- 0 3.0 0.0 18 51
- 0.783964 3 2 ack 40 ------- 0 3.0 0.0 18 51
r 0.785076 3 2 ack 40 ------- 0 3.0 0.0 17 48
+ 0.785076 2 0 ack 40 ------- 0 3.0 0.0 17 48
- 0.785076 2 0 ack 40 ------- 0 3.0 0.0 17 48
r 0.785822 0 2 tcp 1040 ------- 0 0.0 3.0 30 47
+ 0.785822 2 3 tcp 1040 ------- 0 0.0 3.0 30 47
r 0.785991 2 0 ack 40 ------- 0 3.0 0.0 16 45
+ 0.785991 0 2 tcp 1040 ------- 0 0.0 3.0 33 52
- 0.785991 0 2 tcp 1040 ------- 0 0.0 3.0 33 52
+ 0.785991 0 2 tcp 1040 ------- 0 0.0 3.0 34 53
- 0.790151 0 2 tcp 1040 ------- 0 0.0 3.0 34 53
r 0.790907 0 2 tcp 1040 ------- 0 0.0 3.0 31 49
+ 0.790907 2 3 tcp 1040 ------- 0 0.0 3.0 31 49
- 0.792453 2 3 tcp 1040 ------- 0 0.0 3.0 21 34
r 0.793209 2 3 tcp 1040 ------- 0 0.0 3.0 19 31
+ 0.793209 3 2 ack 40 ------- 0 3.0 0.0 19 54
- 0.793209 3 2 ack 40 ------- 0 3.0 0.0 19 54
r 0.79432 3 2 ack 40 ------- 0 3.0 0.0 18 51
+ 0.79432 2 0 ack 40 ------- 0 3.0 0.0 18 51
- 0.79432 2 0 ack 40 ------- 0 3.0 0.0 18 51
r 0.795067 0 2 tcp 1040 ------- 0 0.0 3.0 32 50
+ 0.795067 2 3 tcp 1040 ------- 0 0.0 3.0 32 50
r 0.795236 2 0 ack 40 ------- 0 3.0 0.0 17 48
+ 0.795236 0 2 tcp 1040 ------- 0 0.0 3.0 35 55
- 0.795236 0 2 tcp 1040 ------- 0 0.0 3.0 35 55
+ 0.795236 0 2 tcp 1040 ------- 0 0.0 3.0 36 56
- 0.799396 0 2 tcp 1040 ------- 0 0.0 3.0 36 56
r 0.800151 0 2 tcp 1040 ------- 0 0.0 3.0 33 52
+ 0.800151 2 3 tcp 1040 ------- 0 0.0 3.0 33 52
- 0.801698 2 3 tcp 1040 ------- 0 0.0 3.0 22 35
r 0.802453 2 3 tcp 1040 ------- 0 0.0 3.0 20 32
+ 0.802453 3 2 ack 40 ------- 0 3.0 0.0 20 57
- 0.802453 3 2 ack 40 ------- 0 3.0 0.0 20 57
r 0.803564 3 2 ack 40 ------- 0 3.0 0.0 19 54
+ 0.803564 2 0 ack 40 ------- 0 3.0 0.0 19 54
- 0.803564 2 0 ack 40 ------- 0 3.0 0.0 19 54
r 0.804311 0 2 tcp 1040 ------- 0 0.0 3.0 34 53
+ 0.804311 2 3 tcp 1040 ------- 0 0.0 3.0 34 53
r 0.80448 2 0 ack 40 ------- 0 3.0 0.0 18 51
+ 0.80448 0 2 tcp 1040 ------- 0 0.0 3.0 37 58
- 0.80448 0 2 tcp 1040 ------- 0 0.0 3.0 37 58
+ 0.80448 0 2 tcp 1040 ------- 0 0.0 3.0 38 59
- 0.80864 0 2 tcp 1040 ------- 0 0.0 3.0 38 59
r 0.809396 0 2 tcp 1040 ------- 0 0.0 3.0 35 55
+ 0.809396 2 3 tcp 1040 ------- 0 0.0 3.0 35 55
- 0.810942 2 3 tcp 1040 ------- 0 0.0 3.0 23 37
r 0.811698 2 3 tcp 1040 ------- 0 0.0 3.0 21 34
+ 0.811698 3 2 ack 40 ------- 0 3.0 0.0 21 60
- 0.811698 3 2 ack 40 ------- 0 3.0 0.0 21 60
r 0.812809 3 2 ack 40 ------- 0 3.0 0.0 20 57
+ 0.812809 2 0 ack 40 ------- 0 3.0 0.0 20 57
- 0.812809 2 0 ack 40 ------- 0 3.0 0.0 20 57
r 0.813556 0 2 tcp 1040 ------- 0 0.0 3.0 36 56
+ 0.813556 2 3 tcp 1040 ------- 0 0.0 3.0 36 56
r 0.813724 2 0 ack 40 ------- 0 3.0 0.0 19 54
+ 0.813724 0 2 tcp 1040 ------- 0 0.0 3.0 39 61
- 0.813724 0 2 tcp 1040 ------- 0 0.0 3.0 39 61
r 0.81864 0 2 tcp 1040 ------- 0 0.0 3.0 37 58
+ 0.81864 2 3 tcp 1040 ------- 0 0.0 3.0 37 58
- 0.820187 2 3 tcp 1040 ------- 0 0.0 3.0 24 38
r 0.820942 2 3 tcp 1040 ------- 0 0.0 3.0 22 35
+ 0.820942 3 2 ack 40 ------- 0 3.0 0.0 22 62
- 0.820942 3 2 ack 40 ------- 0 3.0 0.0 22 62
r 0.822053 3 2 ack 40 ------- 0 3.0 0.0 21 60
+ 0.822053 2 0 ack 40 ------- 0 3.0 0.0 21 60
- 0.822053 2 0 ack 40 ------- 0 3.0 0.0 21 60
r 0.8228 0 2 tcp 1040 ------- 0 0.0 3.0 38 59
+ 0.8228 2 3 tcp 1040 ------- 0 0.0 3.0 38 59
r 0.822969 2 0 ack 40 ------- 0 3.0 0.0 20 57
+ 0.822969 0 2 tcp 1040 ------- 0 0.0 3.0 40 63
- 0.822969 0 2 tcp 1040 ------- 0 0.0 3.0 40 63
r 0.827884 0 2 tcp 1040 ------- 0 0.0 3.0 39 61
+ 0.827884 2 3 tcp 1040 ------- 0 0.0 3.0 39 61
- 0.829431 2 3 tcp 1040 ------- 0 0.0 3.0 25 40
r 0.830187 2 3 tcp 1040 ------- 0 0.0 3.0 23 37
+ 0.830187 3 2 ack 40 ------- 0 3.0 0.0 23 64
- 0.830187 3 2 ack 40 ------- 0 3.0 0.0 23 64
r 0.831298 3 2 ack 40 ------- 0 3.0 0.0 22 62
+ 0.831298 2 0 ack 40 ------- 0 3.0 0.0 22 62
- 0.831298 2 0 ack 40 ------- 0 3.0 0.0 22 62
r 0.832213 2 0 ack 40 ------- 0 3.0 0.0 21 60
+ 0.832213 0 2 tcp 1040 ------- 0 0.0 3.0 41 65
- 0.832213 0 2 tcp 1040 ------- 0 0.0 3.0 41 65
r 0.837129 0 2 tcp 1040 ------- 0 0.0 3.0 40 63
+ 0.837129 2 3 tcp 1040 ------- 0 0.0 3.0 40 63
- 0.838676 2 3 tcp 1040 ------- 0 0.0 3.0 26 41
r 0.839431 2 3 tcp 1040 ------- 0 0.0 3.0 24 38
+ 0.839431 3 2 ack 40 ------- 0 3.0 0.0 24 66
- 0.839431 3 2 ack 40 ------- 0 3.0 0.0 24 66
r 0.840542 3 2 ack 40 ------- 0 3.0 0.0 23 64
+ 0.840542 2 0 ack 40 ------- 0 3.0 0.0 23 64
- 0.840542 2 0 ack 40 ------- 0 3.0 0.0 23 64
r 0.841458 2 0 ack 40 ------- 0 3.0 0.0 22 62
+ 0.841458 0 2 tcp 1040 ------- 0 0.0 3.0 42 67
- 0.841458 0 2 tcp 1040 ------- 0 0.0 3.0 42 67
r 0.846373 0 2 tcp 1040 ------- 0 0.0 3.0 41 65
+ 0.846373 2 3 tcp 1040 ------- 0 0.0 3.0 41 65
- 0.84792 2 3 tcp 1040 ------- 0 0.0 3.0 27 43
r 0.848676 2 3 tcp 1040 ------- 0 0.0 3.0 25 40
+ 0.848676 3 2 ack 40 ------- 0 3.0 0.0 25 68
- 0.848676 3 2 ack 40 ------- 0 3.0 0.0 25 68
r 0.849787 3 2 ack 40 ------- 0 3.0 0.0 24 66
+ 0.849787 2 0 ack 40 ------- 0 3.0 0.0 24 66
- 0.849787 2 0 ack 40 ------- 0 3.0 0.0 24 66
r 0.850702 2 0 ack 40 ------- 0 3.0 0.0 23 64
+ 0.850702 0 2 tcp 1040 ------- 0 0.0 3.0 43 69
- 0.850702 0 2 tcp 1040 ------- 0 0.0 3.0 43 69
r 0.855618 0 2 tcp 1040 ------- 0 0.0 3.0 42 67
+ 0.855618 2 3 tcp 1040 ------- 0 0.0 3.0 42 67
- 0.857164 2 3 tcp 1040 ------- 0 0.0 3.0 28 44
r 0.85792 2 3 tcp 1040 ------- 0 0.0 3.0 26 41
+ 0.85792 3 2 ack 40 ------- 0 3.0 0.0 26 70
- 0.85792 3 2 ack 40 ------- 0 3.0 0.0 26 70
r 0.859031 3 2 ack 40 ------- 0 3.0 0.0 25 68
+ 0.859031 2 0 ack 40 ------- 0 3.0 0.0 25 68
- 0.859031 2 0 ack 40 ------- 0 3.0 0.0 25 68
r 0.859947 2 0 ack 40 ------- 0 3.0 0.0 24 66
+ 0.859947 0 2 tcp 1040 ------- 0 0.0 3.0 44 71
- 0.859947 0 2 tcp 1040 ------- 0 0.0 3.0 44 71
r 0.864862 0 2 tcp 1040 ------- 0 0.0 3.0 43 69
+ 0.864862 2 3 tcp 1040 ------- 0 0.0 3.0 43 69
- 0.866409 2 3 tcp 1040 ------- 0 0.0 3.0 29 46
r 0.867164 2 3 tcp 1040 ------- 0 0.0 3.0 27 43
+ 0.867164 3 2 ack 40 ------- 0 3.0 0.0 27 72
- 0.867164 3 2 ack 40 ------- 0 3.0 0.0 27 72
r 0.868276 3 2 ack 40 ------- 0 3.0 0.0 26 70
+ 0.868276 2 0 ack 40 ------- 0 3.0 0.0 26 70
- 0.868276 2 0 ack 40 ------- 0 3.0 0.0 26 70
r 0.869191 2 0 ack 40 ------- 0 3.0 0.0 25 68
+ 0.869191 0 2 tcp 1040 ------- 0 0.0 3.0 45 73
- 0.869191 0 2 tcp 1040 ------- 0 0.0 3.0 45 73
r 0.874107 0 2 tcp 1040 ------- 0 0.0 3.0 44 71
+ 0.874107 2 3 tcp 1040 ------- 0 0.0 3.0 44 71
- 0.875653 2 3 tcp 1040 ------- 0 0.0 3.0 30 47
r 0.876409 2 3 tcp 1040 ------- 0 0.0 3.0 28 44
+ 0.876409 3 2 ack 40 ------- 0 3.0 0.0 28 74
- 0.876409 3 2 ack 40 ------- 0 3.0 0.0 28 74
r 0.87752 3 2 ack 40 ------- 0 3.0 0.0 27 72
+ 0.87752 2 0 ack 40 ------- 0 3.0 0.0 27 72
- 0.87752 2 0 ack 40 ------- 0 3.0 0.0 27 72
r 0.878436 2 0 ack 40 ------- 0 3.0 0.0 26 70
+ 0.878436 0 2 tcp 1040 ------- 0 0.0 3.0 46 75
- 0.878436 0 2 tcp 1040 ------- 0 0.0 3.0 46 75
r 0.883351 0 2 tcp 1040 ------- 0 0.0 3.0 45 73
+ 0.883351 2 3 tcp 1040 ------- 0 0.0 3.0 45 73
- 0.884898 2 3 tcp 1040 ------- 0 0.0 3.0 31 49
r 0.885653 2 3 tcp 1040 ------- 0 0.0 3.0 29 46
+ 0.885653 3 2 ack 40 ------- 0 3.0 0.0 29 76
- 0.885653 3 2 ack 40 ------- 0 3.0 0.0 29 76
r 0.886764 3 2 ack 40 ------- 0 3.0 0.0 28 74
+ 0.886764 2 0 ack 40 ------- 0 3.0 0.0 28 74
- 0.886764 2 0 ack 40 ------- 0 3.0 0.0 28 74
r 0.88768 2 0 ack 40 ------- 0 3.0 0.0 27 72
+ 0.88768 0 2 tcp 1040 ------- 0 0.0 3.0 47 77
- 0.88768 0 2 tcp 1040 ------- 0 0.0 3.0 47 77
r 0.892596 0 2 tcp 1040 ------- 0 0.0 3.0 46 75
+ 0.892596 2 3 tcp 1040 ------- 0 0.0 3.0 46 75
- 0.894142 2 3 tcp 1040 ------- 0 0.0 3.0 32 50
r 0.894898 2 3 tcp 1040 ------- 0 0.0 3.0 30 47
+ 0.894898 3 2 ack 40 ------- 0 3.0 0.0 30 78
- 0.894898 3 2 ack 40 ------- 0 3.0 0.0 30 78
r 0.896009 3 2 ack 40 ------- 0 3.0 0.0 29 76
+ 0.896009 2 0 ack 40 ------- 0 3.0 0.0 29 76
- 0.896009 2 0 ack 40 ------- 0 3.0 0.0 29 76
r 0.896924 2 0 ack 40 ------- 0 3.0 0.0 28 74
+ 0.896924 0 2 tcp 1040 ------- 0 0.0 3.0 48 79
- 0.896924 0 2 tcp 1040 ------- 0 0.0 3.0 48 79
r 0.90184 0 2 tcp 1040 ------- 0 0.0 3.0 47 77
+ 0.90184 2 3 tcp 1040 ------- 0 0.0 3.0 47 77
- 0.903387 2 3 tcp 1040 ------- 0 0.0 3.0 33 52
r 0.904142 2 3 tcp 1040 ------- 0 0.0 3.0 31 49
+ 0.904142 3 2 ack 40 ------- 0 3.0 0.0 31 80
- 0.904142 3 2 ack 40 ------- 0 3.0 0.0 31 80
r 0.905253 3 2 ack 40 ------- 0 3.0 0.0 30 78
+ 0.905253 2 0 ack 40 ------- 0 3.0 0.0 30 78
- 0.905253 2 0 ack 40 ------- 0 3.0 0.0 30 78
r 0.906169 2 0 ack 40 ------- 0 3.0 0.0 29 76
+ 0.906169 0 2 tcp 1040 ------- 0 0.0 3.0 49 81
- 0.906169 0 2 tcp 1040 ------- 0 0.0 3.0 49 81
r 0.911084 0 2 tcp 1040 ------- 0 0.0 3.0 48 79
+ 0.911084 2 3 tcp 1040 ------- 0 0.0 3.0 48 79
- 0.912631 2 3 tcp 1040 ------- 0 0.0 3.0 34 53
r 0.913387 2 3 tcp 1040 ------- 0 0.0 3.0 32 50
+ 0.913387 3 2 ack 40 ------- 0 3.0 0.0 32 82
- 0.913387 3 2 ack 40 ------- 0 3.0 0.0 32 82
r 0.914498 3 2 ack 40 ------- 0 3.0 0.0 31 80
+ 0.914498 2 0 ack 40 ------- 0 3.0 0.0 31 80
- 0.914498 2 0 ack 40 ------- 0 3.0 0.0 31 80
r 0.915413 2 0 ack 40 ------- 0 3.0 0.0 30 78
+ 0.915413 0 2 tcp 1040 ------- 0 0.0 3.0 50 83
- 0.915413 0 2 tcp 1040 ------- 0 0.0 3.0 50 83
r 0.920329 0 2 tcp 1040 ------- 0 0.0 3.0 49 81
+ 0.920329 2 3 tcp 1040 ------- 0 0.0 3.0 49 81
- 0.921876 2 3 tcp 1040 ------- 0 0.0 3.0 35 55
r 0.922631 2 3 tcp 1040 ------- 0 0.0 3.0 33 52
+ 0.922631 3 2 ack 40 ------- 0 3.0 0.0 33 84
- 0.922631 3 2 ack 40 ------- 0 3.0 0.0 33 84
r 0.923742 3 2 ack 40 ------- 0 3.0 0.0 32 82
+ 0.923742 2 0 ack 40 ------- 0 3.0 0.0 32 82
- 0.923742 2 0 ack 40 ------- 0 3.0 0.0 32 82
r 0.924658 2 0 ack 40 ------- 0 3.0 0.0 31 80
+ 0.924658 0 2 tcp 1040 ------- 0 0.0 3.0 51 85
- 0.924658 0 2 tcp 1040 ------- 0 0.0 3.0 51 85
r 0.929573 0 2 tcp 1040 ------- 0 0.0 3.0 50 83
+ 0.929573 2 3 tcp 1040 ------- 0 0.0 3.0 50 83
- 0.93112 2 3 tcp 1040 ------- 0 0.0 3.0 36 56
r 0.931876 2 3 tcp 1040 ------- 0 0.0 3.0 34 53
+ 0.931876 3 2 ack 40 ------- 0 3.0 0.0 34 86
- 0.931876 3 2 ack 40 ------- 0 3.0 0.0 34 86
r 0.932987 3 2 ack 40 ------- 0 3.0 0.0 33 84
+ 0.932987 2 0 ack 40 ------- 0 3.0 0.0 33 84
- 0.932987 2 0 ack 40 ------- 0 3.0 0.0 33 84
r 0.933902 2 0 ack 40 ------- 0 3.0 0.0 32 82
+ 0.933902 0 2 tcp 1040 ------- 0 0.0 3.0 52 87
- 0.933902 0 2 tcp 1040 ------- 0 0.0 3.0 52 87
r 0.938818 0 2 tcp 1040 ------- 0 0.0 3.0 51 85
+ 0.938818 2 3 tcp 1040 ------- 0 0.0 3.0 51 85
- 0.940364 2 3 tcp 1040 ------- 0 0.0 3.0 37 58
r 0.94112 2 3 tcp 1040 ------- 0 0.0 3.0 35 55
+ 0.94112 3 2 ack 40 ------- 0 3.0 0.0 35 88
- 0.94112 3 2 ack 40 ------- 0 3.0 0.0 35 88
r 0.942231 3 2 ack 40 ------- 0 3.0 0.0 34 86
+ 0.942231 2 0 ack 40 ------- 0 3.0 0.0 34 86
- 0.942231 2 0 ack 40 ------- 0 3.0 0.0 34 86
r 0.943147 2 0 ack 40 ------- 0 3.0 0.0 33 84
+ 0.943147 0 2 tcp 1040 ------- 0 0.0 3.0 53 89
- 0.943147 0 2 tcp 1040 ------- 0 0.0 3.0 53 89
r 0.948062 0 2 tcp 1040 ------- 0 0.0 3.0 52 87
+ 0.948062 2 3 tcp 1040 ------- 0 0.0 3.0 52 87
- 0.949609 2 3 tcp 1040 ------- 0 0.0 3.0 38 59
r 0.950364 2 3 tcp 1040 ------- 0 0.0 3.0 36 56
+ 0.950364 3 2 ack 40 ------- 0 3.0 0.0 36 90
- 0.950364 3 2 ack 40 ------- 0 3.0 0.0 36 90
r 0.951476 3 2 ack 40 ------- 0 3.0 0.0 35 88
+ 0.951476 2 0 ack 40 ------- 0 3.0 0.0 35 88
- 0.951476 2 0 ack 40 ------- 0 3.0 0.0 35 88
r 0.952391 2 0 ack 40 ------- 0 3.0 0.0 34 86
+ 0.952391 0 2 tcp 1040 ------- 0 0.0 3.0 54 91
- 0.952391 0 2 tcp 1040 ------- 0 0.0 3.0 54 91
r 0.957307 0 2 tcp 1040 ------- 0 0.0 3.0 53 89
+ 0.957307 2 3 tcp 1040 ------- 0 0.0 3.0 53 89
- 0.958853 2 3 tcp 1040 ------- 0 0.0 3.0 39 61
r 0.959609 2 3 tcp 1040 ------- 0 0.0 3.0 37 58
+ 0.959609 3 2 ack 40 ------- 0 3.0 0.0 37 92
- 0.959609 3 2 ack 40 ------- 0 3.0 0.0 37 92
r 0.96072 3 2 ack 40 ------- 0 3.0 0.0 36 90
+ 0.96072 2 0 ack 40 ------- 0 3.0 0.0 36 90
- 0.96072 2 0 ack 40 ------- 0 3.0 0.0 36 90
r 0.961636 2 0 ack 40 ------- 0 3.0 0.0 35 88
+ 0.961636 0 2 tcp 1040 ------- 0 0.0 3.0 55 93
- 0.961636 0 2 tcp 1040 ------- 0 0.0 3.0 55 93
r 0.966551 0 2 tcp 1040 ------- 0 0.0 3.0 54 91
+ 0.966551 2 3 tcp 1040 ------- 0 0.0 3.0 54 91
- 0.968098 2 3 tcp 1040 ------- 0 0.0 3.0 40 63
r 0.968853 2 3 tcp 1040 ------- 0 0.0 3.0 38 59
+ 0.968853 3 2 ack 40 ------- 0 3.0 0.0 38 94
- 0.968853 3 2 ack 40 ------- 0 3.0 0.0 38 94
r 0.969964 3 2 ack 40 ------- 0 3.0 0.0 37 92
+ 0.969964 2 0 ack 40 ------- 0 3.0 0.0 37 92
- 0.969964 2 0 ack 40 ------- 0 3.0 0.0 37 92
r 0.97088 2 0 ack 40 ------- 0 3.0 0.0 36 90
+ 0.97088 0 2 tcp 1040 ------- 0 0.0 3.0 56 95
- 0.97088 0 2 tcp 1040 ------- 0 0.0 3.0 56 95
r 0.975796 0 2 tcp 1040 ------- 0 0.0 3.0 55 93
+ 0.975796 2 3 tcp 1040 ------- 0 0.0 3.0 55 93
- 0.977342 2 3 tcp 1040 ------- 0 0.0 3.0 41 65
r 0.978098 2 3 tcp 1040 ------- 0 0.0 3.0 39 61
+ 0.978098 3 2 ack 40 ------- 0 3.0 0.0 39 96
- 0.978098 3 2 ack 40 ------- 0 3.0 0.0 39 96
r 0.979209 3 2 ack 40 ------- 0 3.0 0.0 38 94
+ 0.979209 2 0 ack 40 ------- 0 3.0 0.0 38 94
- 0.979209 2 0 ack 40 ------- 0 3.0 0.0 38 94
r 0.980124 2 0 ack 40 ------- 0 3.0 0.0 37 92
+ 0.980124 0 2 tcp 1040 ------- 0 0.0 3.0 57 97
- 0.980124 0 2 tcp 1040 ------- 0 0.0 3.0 57 97
r 0.98504 0 2 tcp 1040 ------- 0 0.0 3.0 56 95
+ 0.98504 2 3 tcp 1040 ------- 0 0.0 3.0 56 95
- 0.986587 2 3 tcp 1040 ------- 0 0.0 3.0 42 67
r 0.987342 2 3 tcp 1040 ------- 0 0.0 3.0 40 63
+ 0.987342 3 2 ack 40 ------- 0 3.0 0.0 40 98
- 0.987342 3 2 ack 40 ------- 0 3.0 0.0 40 98
r 0.988453 3 2 ack 40 ------- 0 3.0 0.0 39 96
+ 0.988453 2 0 ack 40 ------- 0 3.0 0.0 39 96
- 0.988453 2 0 ack 40 ------- 0 3.0 0.0 39 96
r 0.989369 2 0 ack 40 ------- 0 3.0 0.0 38 94
+ 0.989369 0 2 tcp 1040 ------- 0 0.0 3.0 58 99
- 0.989369 0 2 tcp 1040 ------- 0 0.0 3.0 58 99
r 0.994284 0 2 tcp 1040 ------- 0 0.0 3.0 57 97
+ 0.994284 2 3 tcp 1040 ------- 0 0.0 3.0 57 97
- 0.995831 2 3 tcp 1040 ------- 0 0.0 3.0 43 69
r 0.996587 2 3 tcp 1040 ------- 0 0.0 3.0 41 65
+ 0.996587 3 2 ack 40 ------- 0 3.0 0.0 41 100
- 0.996587 3 2 ack 40 ------- 0 3.0 0.0 41 100
r 0.997698 3 2 ack 40 ------- 0 3.0 0.0 40 98
+ 0.997698 2 0 ack 40 ------- 0 3.0 0.0 40 98
- 0.997698 2 0 ack 40 ------- 0 3.0 0.0 40 98
r 0.998613 2 0 ack 40 ------- 0 3.0 0.0 39 96
+ 0.998613 0 2 tcp 1040 ------- 0 0.0 3.0 59 101
- 0.998613 0 2 tcp 1040 ------- 0 0.0 3.0 59 101
+ 1 1 2 cbr 500 ------- 0 1.0 3.1 0 102
- 1 1 2 cbr 500 ------- 0 1.0 3.1 0 102
r 1.003529 0 2 tcp 1040 ------- 0 0.0 3.0 58 99
+ 1.003529 2 3 tcp 1040 ------- 0 0.0 3.0 58 99
+ 1.005 1 2 cbr 500 ------- 0 1.0 3.1 1 103
- 1.005 1 2 cbr 500 ------- 0 1.0 3.1 1 103
- 1.005076 2 3 tcp 1040 ------- 0 0.0 3.0 44 71
r 1.005831 2 3 tcp 1040 ------- 0 0.0 3.0 42 67
+ 1.005831 3 2 ack 40 ------- 0 3.0 0.0 42 104
- 1.005831 3 2 ack 40 ------- 0 3.0 0.0 42 104
r 1.006942 3 2 ack 40 ------- 0 3.0 0.0 41 100
+ 1.006942 2 0 ack 40 ------- 0 3.0 0.0 41 100
- 1.006942 2 0 ack 40 ------- 0 3.0 0.0 41 100
r 1.007858 2 0 ack 40 ------- 0 3.0 0.0 40 98
+ 1.007858 0 2 tcp 1040 ------- 0 0.0 3.0 60 105
- 1.007858 0 2 tcp 1040 ------- 0 0.0 3.0 60 105
+ 1.01 1 2 cbr 500 ------- 0 1.0 3.1 2 106
- 1.01 1 2 cbr 500 ------- 0 1.0 3.1 2 106
r 1.012 1 2 cbr 500 ------- 0 1.0 3.1 0 102
+ 1.012 2 3 cbr 500 ------- 0 1.0 3.1 0 102
r 1.012773 0 2 tcp 1040 ------- 0 0.0 3.0 59 101
+ 1.012773 2 3 tcp 1040 ------- 0 0.0 3.0 59 101
- 1.01432 2 3 tcp 1040 ------- 0 0.0 3.0 45 73
+ 1.015 1 2 cbr 500 ------- 0 1.0 3.1 3 107
- 1.015 1 2 cbr 500 ------- 0 1.0 3.1 3 107
r 1.015076 2 3 tcp 1040 ------- 0 0.0 3.0 43 69
+ 1.015076 3 2 ack 40 ------- 0 3.0 0.0 43 108
- 1.015076 3 2 ack 40 ------- 0 3.0 0.0 43 108
r 1.016187 3 2 ack 40 ------- 0 3.0 0.0 42 104
+ 1.016187 2 0 ack 40 ------- 0 3.0 0.0 42 104
- 1.016187 2 0 ack 40 ------- 0 3.0 0.0 42 104
r 1.017 1 2 cbr 500 ------- 0 1.0 3.1 1 103
+ 1.017 2 3 cbr 500 ------- 0 1.0 3.1 1 103
r 1.017102 2 0 ack 40 ------- 0 3.0 0.0 41 100
+ 1.017102 0 2 tcp 1040 ------- 0 0.0 3.0 61 109
- 1.017102 0 2 tcp 1040 ------- 0 0.0 3.0 61 109
+ 1.02 1 2 cbr 500 ------- 0 1.0 3.1 4 110
- 1.02 1 2 cbr 500 ------- 0 1.0 3.1 4 110
r 1.022 1 2 cbr 500 ------- 0 1.0 3.1 2 106
+ 1.022 2 3 cbr 500 ------- 0 1.0 3.1 2 106
r 1.022018 0 2 tcp 1040 ------- 0 0.0 3.0 60 105
+ 1.022018 2 3 tcp 1040 ------- 0 0.0 3.0 60 105
- 1.023564 2 3 tcp 1040 ------- 0 0.0 3.0 46 75
r 1.02432 2 3 tcp 1040 ------- 0 0.0 3.0 44 71
+ 1.02432 3 2 ack 40 ------- 0 3.0 0.0 44 111
- 1.02432 3 2 ack 40 ------- 0 3.0 0.0 44 111
+ 1.025 1 2 cbr 500 ------- 0 1.0 3.1 5 112
- 1.025 1 2 cbr 500 ------- 0 1.0 3.1 5 112
r 1.025431 3 2 ack 40 ------- 0 3.0 0.0 43 108
+ 1.025431 2 0 ack 40 ------- 0 3.0 0.0 43 108
- 1.025431 2 0 ack 40 ------- 0 3.0 0.0 43 108
r 1.026347 2 0 ack 40 ------- 0 3.0 0.0 42 104
+ 1.026347 0 2 tcp 1040 ------- 0 0.0 3.0 62 113
- 1.026347 0 2 tcp 1040 ------- 0 0.0 3.0 62 113
r 1.027 1 2 cbr 500 ------- 0 1.0 3.1 3 107
+ 1.027 2 3 cbr 500 ------- 0 1.0 3.1 3 107
+ 1.03 1 2 cbr 500 ------- 0 1.0 3.1 6 114
- 1.03 1 2 cbr 500 ------- 0 1.0 3.1 6 114
r 1.031262 0 2 tcp 1040 ------- 0 0.0 3.0 61 109
+ 1.031262 2 3 tcp 1040 ------- 0 0.0 3.0 61 109
r 1.032 1 2 cbr 500 ------- 0 1.0 3.1 4 110
+ 1.032 2 3 cbr 500 ------- 0 1.0 3.1 4 110
- 1.032809 2 3 tcp 1040 ------- 0 0.0 3.0 47 77
r 1.033564 2 3 tcp 1040 ------- 0 0.0 3.0 45 73
+ 1.033564 3 2 ack 40 ------- 0 3.0 0.0 45 115
- 1.033564 3 2 ack 40 ------- 0 3.0 0.0 45 115
r 1.034676 3 2 ack 40 ------- 0 3.0 0.0 44 111
+ 1.034676 2 0 ack 40 ------- 0 3.0 0.0 44 111
- 1.034676 2 0 ack 40 ------- 0 3.0 0.0 44 111
+ 1.035 1 2 cbr 500 ------- 0 1.0 3.1 7 116
- 1.035 1 2 cbr 500 ------- 0 1.0 3.1 7 116
r 1.035591 2 0 ack 40 ------- 0 3.0 0.0 43 108
+ 1.035591 0 2 tcp 1040 ------- 0 0.0 3.0 63 117
- 1.035591 0 2 tcp 1040 ------- 0 0.0 3.0 63 117
r 1.037 1 2 cbr 500 ------- 0 1.0 3.1 5 112