+ 0.3 1 2 cbr 210 ------- 2 1.0 6.0 0 0
- 0.3 1 2 cbr 210 ------- 2 1.0 6.0 0 0
r 0.31168 1 2 cbr 210 ------- 2 1.0 6.0 0 0
+ 0.31168 2 3 cbr 210 ------- 2 1.0 6.0 0 0
- 0.31168 2 3 cbr 210 ------- 2 1.0 6.0 0 0
+ 0.3336 1 2 cbr 210 ------- 2 1.0 6.0 1 1
- 0.3336 1 2 cbr 210 ------- 2 1.0 6.0 1 1
r 0.34528 1 2 cbr 210 ------- 2 1.0 6.0 1 1
+ 0.34528 2 3 cbr 210 ------- 2 1.0 6.0 1 1
- 0.34528 2 3 cbr 210 ------- 2 1.0 6.0 1 1
+ 0.3672 1 2 cbr 210 ------- 2 1.0 6.0 2 2
- 0.3672 1 2 cbr 210 ------- 2 1.0 6.0 2 2
r 0.37888 1 2 cbr 210 ------- 2 1.0 6.0 2 2
+ 0.37888 2 3 cbr 210 ------- 2 1.0 6.0 2 2
- 0.37888 2 3 cbr 210 ------- 2 1.0 6.0 2 2
+ 0.4008 1 2 cbr 210 ------- 2 1.0 6.0 3 3
- 0.4008 1 2 cbr 210 ------- 2 1.0 6.0 3 3
r 0.41248 1 2 cbr 210 ------- 2 1.0 6.0 3 3
+ 0.41248 2 3 cbr 210 ------- 2 1.0 6.0 3 3
- 0.41248 2 3 cbr 210 ------- 2 1.0 6.0 3 3
r 0.41728 2 3 cbr 210 ------- 2 1.0 6.0 0 0
h 0.41728 3 7 cbr 210 ------- 2 1.0 6.0 0 0
+ 0.4344 1 2 cbr 210 ------- 2 1.0 6.0 4 4
- 0.4344 1 2 cbr 210 ------- 2 1.0 6.0 4 4
r 0.44608 1 2 cbr 210 ------- 2 1.0 6.0 4 4
+ 0.44608 2 3 cbr 210 ------- 2 1.0 6.0 4 4
- 0.44608 2 3 cbr 210 ------- 2 1.0 6.0 4 4
r 0.45088 2 3 cbr 210 ------- 2 1.0 6.0 1 1
h 0.45088 3 7 cbr 210 ------- 2 1.0 6.0 1 1
+ 0.45728 3 7 cbr 210 ------- 2 1.0 6.0 0 0
- 0.45728 3 7 cbr 210 ------- 2 1.0 6.0 0 0
d 0.457284 5 7 cbr 210 ------- 2 1.0 6.0 0 0
d 0.457284 4 7 cbr 210 ------- 2 1.0 6.0 0 0
+ 0.468 1 2 cbr 210 ------- 2 1.0 6.0 5 5
- 0.468 1 2 cbr 210 ------- 2 1.0 6.0 5 5
r 0.47968 1 2 cbr 210 ------- 2 1.0 6.0 5 5
+ 0.47968 2 3 cbr 210 ------- 2 1.0 6.0 5 5
- 0.47968 2 3 cbr 210 ------- 2 1.0 6.0 5 5
r 0.48448 2 3 cbr 210 ------- 2 1.0 6.0 2 2
h 0.48448 3 7 cbr 210 ------- 2 1.0 6.0 2 2
+ 0.49088 3 7 cbr 210 ------- 2 1.0 6.0 1 1
- 0.49088 3 7 cbr 210 ------- 2 1.0 6.0 1 1
d 0.490884 5 7 cbr 210 ------- 2 1.0 6.0 1 1
d 0.490884 4 7 cbr 210 ------- 2 1.0 6.0 1 1
r 0.497284 7 6 cbr 210 ------- 2 1.0 6.0 0 0
+ 0.5016 1 2 cbr 210 ------- 2 1.0 6.0 6 6
- 0.5016 1 2 cbr 210 ------- 2 1.0 6.0 6 6
r 0.51328 1 2 cbr 210 ------- 2 1.0 6.0 6 6
+ 0.51328 2 3 cbr 210 ------- 2 1.0 6.0 6 6
- 0.51328 2 3 cbr 210 ------- 2 1.0 6.0 6 6
r 0.51808 2 3 cbr 210 ------- 2 1.0 6.0 3 3
h 0.51808 3 7 cbr 210 ------- 2 1.0 6.0 3 3
+ 0.52448 3 7 cbr 210 ------- 2 1.0 6.0 2 2
- 0.52448 3 7 cbr 210 ------- 2 1.0 6.0 2 2
d 0.524484 5 7 cbr 210 ------- 2 1.0 6.0 2 2
d 0.524484 4 7 cbr 210 ------- 2 1.0 6.0 2 2
r 0.530884 7 6 cbr 210 ------- 2 1.0 6.0 1 1
+ 0.5352 1 2 cbr 210 ------- 2 1.0 6.0 7 7
- 0.5352 1 2 cbr 210 ------- 2 1.0 6.0 7 7
r 0.54688 1 2 cbr 210 ------- 2 1.0 6.0 7 7
+ 0.54688 2 3 cbr 210 ------- 2 1.0 6.0 7 7
- 0.54688 2 3 cbr 210 ------- 2 1.0 6.0 7 7
r 0.55168 2 3 cbr 210 ------- 2 1.0 6.0 4 4
h 0.55168 3 7 cbr 210 ------- 2 1.0 6.0 4 4
+ 0.55808 3 7 cbr 210 ------- 2 1.0 6.0 3 3
- 0.55808 3 7 cbr 210 ------- 2 1.0 6.0 3 3
d 0.558084 5 7 cbr 210 ------- 2 1.0 6.0 3 3
d 0.558084 4 7 cbr 210 ------- 2 1.0 6.0 3 3
r 0.564484 7 6 cbr 210 ------- 2 1.0 6.0 2 2
+ 0.5688 1 2 cbr 210 ------- 2 1.0 6.0 8 8
- 0.5688 1 2 cbr 210 ------- 2 1.0 6.0 8 8
r 0.58048 1 2 cbr 210 ------- 2 1.0 6.0 8 8
+ 0.58048 2 3 cbr 210 ------- 2 1.0 6.0 8 8
- 0.58048 2 3 cbr 210 ------- 2 1.0 6.0 8 8
r 0.58528 2 3 cbr 210 ------- 2 1.0 6.0 5 5
h 0.58528 3 7 cbr 210 ------- 2 1.0 6.0 5 5
+ 0.59168 3 7 cbr 210 ------- 2 1.0 6.0 4 4
- 0.59168 3 7 cbr 210 ------- 2 1.0 6.0 4 4
d 0.591684 5 7 cbr 210 ------- 2 1.0 6.0 4 4
d 0.591684 4 7 cbr 210 ------- 2 1.0 6.0 4 4
r 0.598084 7 6 cbr 210 ------- 2 1.0 6.0 3 3
+ 0.6024 1 2 cbr 210 ------- 2 1.0 6.0 9 9
- 0.6024 1 2 cbr 210 ------- 2 1.0 6.0 9 9
r 0.61408 1 2 cbr 210 ------- 2 1.0 6.0 9 9
+ 0.61408 2 3 cbr 210 ------- 2 1.0 6.0 9 9
- 0.61408 2 3 cbr 210 ------- 2 1.0 6.0 9 9
r 0.61888 2 3 cbr 210 ------- 2 1.0 6.0 6 6
h 0.61888 3 7 cbr 210 ------- 2 1.0 6.0 6 6
+ 0.62528 3 7 cbr 210 ------- 2 1.0 6.0 5 5
- 0.62528 3 7 cbr 210 ------- 2 1.0 6.0 5 5
d 0.625284 5 7 cbr 210 ------- 2 1.0 6.0 5 5
d 0.625284 4 7 cbr 210 ------- 2 1.0 6.0 5 5
r 0.631684 7 6 cbr 210 ------- 2 1.0 6.0 4 4
+ 0.636 1 2 cbr 210 ------- 2 1.0 6.0 10 10
- 0.636 1 2 cbr 210 ------- 2 1.0 6.0 10 10
r 0.64768 1 2 cbr 210 ------- 2 1.0 6.0 10 10
+ 0.64768 2 3 cbr 210 ------- 2 1.0 6.0 10 10
- 0.64768 2 3 cbr 210 ------- 2 1.0 6.0 10 10
r 0.65248 2 3 cbr 210 ------- 2 1.0 6.0 7 7
h 0.65248 3 7 cbr 210 ------- 2 1.0 6.0 7 7
+ 0.65888 3 7 cbr 210 ------- 2 1.0 6.0 6 6
- 0.65888 3 7 cbr 210 ------- 2 1.0 6.0 6 6
d 0.658884 5 7 cbr 210 ------- 2 1.0 6.0 6 6
d 0.658884 4 7 cbr 210 ------- 2 1.0 6.0 6 6
r 0.665284 7 6 cbr 210 ------- 2 1.0 6.0 5 5
+ 0.6696 1 2 cbr 210 ------- 2 1.0 6.0 11 11
- 0.6696 1 2 cbr 210 ------- 2 1.0 6.0 11 11
r 0.68128 1 2 cbr 210 ------- 2 1.0 6.0 11 11
+ 0.68128 2 3 cbr 210 ------- 2 1.0 6.0 11 11
- 0.68128 2 3 cbr 210 ------- 2 1.0 6.0 11 11
r 0.68608 2 3 cbr 210 ------- 2 1.0 6.0 8 8
h 0.68608 3 7 cbr 210 ------- 2 1.0 6.0 8 8
+ 0.69248 3 7 cbr 210 ------- 2 1.0 6.0 7 7
- 0.69248 3 7 cbr 210 ------- 2 1.0 6.0 7 7
d 0.692484 5 7 cbr 210 ------- 2 1.0 6.0 7 7
d 0.692484 4 7 cbr 210 ------- 2 1.0 6.0 7 7
r 0.698884 7 6 cbr 210 ------- 2 1.0 6.0 6 6
+ 0.7032 1 2 cbr 210 ------- 2 1.0 6.0 12 12
- 0.7032 1 2 cbr 210 ------- 2 1.0 6.0 12 12
r 0.71488 1 2 cbr 210 ------- 2 1.0 6.0 12 12
+ 0.71488 2 3 cbr 210 ------- 2 1.0 6.0 12 12
- 0.71488 2 3 cbr 210 ------- 2 1.0 6.0 12 12
r 0.71968 2 3 cbr 210 ------- 2 1.0 6.0 9 9
h 0.71968 3 7 cbr 210 ------- 2 1.0 6.0 9 9
+ 0.72608 3 7 cbr 210 ------- 2 1.0 6.0 8 8
- 0.72608 3 7 cbr 210 ------- 2 1.0 6.0 8 8
d 0.726084 5 7 cbr 210 ------- 2 1.0 6.0 8 8
d 0.726084 4 7 cbr 210 ------- 2 1.0 6.0 8 8
r 0.732484 7 6 cbr 210 ------- 2 1.0 6.0 7 7
+ 0.7368 1 2 cbr 210 ------- 2 1.0 6.0 13 13
- 0.7368 1 2 cbr 210 ------- 2 1.0 6.0 13 13
r 0.74848 1 2 cbr 210 ------- 2 1.0 6.0 13 13
+ 0.74848 2 3 cbr 210 ------- 2 1.0 6.0 13 13
- 0.74848 2 3 cbr 210 ------- 2 1.0 6.0 13 13
r 0.75328 2 3 cbr 210 ------- 2 1.0 6.0 10 10
h 0.75328 3 7 cbr 210 ------- 2 1.0 6.0 10 10
+ 0.75968 3 7 cbr 210 ------- 2 1.0 6.0 9 9
- 0.75968 3 7 cbr 210 ------- 2 1.0 6.0 9 9
d 0.759684 5 7 cbr 210 ------- 2 1.0 6.0 9 9
d 0.759684 4 7 cbr 210 ------- 2 1.0 6.0 9 9
r 0.766084 7 6 cbr 210 ------- 2 1.0 6.0 8 8
+ 0.7704 1 2 cbr 210 ------- 2 1.0 6.0 14 14
- 0.7704 1 2 cbr 210 ------- 2 1.0 6.0 14 14
r 0.78208 1 2 cbr 210 ------- 2 1.0 6.0 14 14
+ 0.78208 2 3 cbr 210 ------- 2 1.0 6.0 14 14
- 0.78208 2 3 cbr 210 ------- 2 1.0 6.0 14 14
r 0.78688 2 3 cbr 210 ------- 2 1.0 6.0 11 11
h 0.78688 3 7 cbr 210 ------- 2 1.0 6.0 11 11
+ 0.79328 3 7 cbr 210 ------- 2 1.0 6.0 10 10
- 0.79328 3 7 cbr 210 ------- 2 1.0 6.0 10 10
d 0.793284 5 7 cbr 210 ------- 2 1.0 6.0 10 10
d 0.793284 4 7 cbr 210 ------- 2 1.0 6.0 10 10
r 0.799684 7 6 cbr 210 ------- 2 1.0 6.0 9 9
+ 0.8 0 2 tcp 40 ------- 1 0.0 4.0 0 15
- 0.8 0 2 tcp 40 ------- 1 0.0 4.0 0 15
+ 0.804 1 2 cbr 210 ------- 2 1.0 6.0 15 16
- 0.804 1 2 cbr 210 ------- 2 1.0 6.0 15 16
r 0.81032 0 2 tcp 40 ------- 1 0.0 4.0 0 15
+ 0.81032 2 3 tcp 40 ------- 1 0.0 4.0 0 15
- 0.81032 2 3 tcp 40 ------- 1 0.0 4.0 0 15
r 0.81568 1 2 cbr 210 ------- 2 1.0 6.0 15 16
+ 0.81568 2 3 cbr 210 ------- 2 1.0 6.0 15 16
- 0.81568 2 3 cbr 210 ------- 2 1.0 6.0 15 16
r 0.82048 2 3 cbr 210 ------- 2 1.0 6.0 12 12
h 0.82048 3 7 cbr 210 ------- 2 1.0 6.0 12 12
+ 0.82688 3 7 cbr 210 ------- 2 1.0 6.0 11 11
- 0.82688 3 7 cbr 210 ------- 2 1.0 6.0 11 11
d 0.826884 5 7 cbr 210 ------- 2 1.0 6.0 11 11
d 0.826884 4 7 cbr 210 ------- 2 1.0 6.0 11 11
r 0.833284 7 6 cbr 210 ------- 2 1.0 6.0 10 10
+ 0.8376 1 2 cbr 210 ------- 2 1.0 6.0 16 17
- 0.8376 1 2 cbr 210 ------- 2 1.0 6.0 16 17
r 0.84928 1 2 cbr 210 ------- 2 1.0 6.0 16 17
+ 0.84928 2 3 cbr 210 ------- 2 1.0 6.0 16 17
- 0.84928 2 3 cbr 210 ------- 2 1.0 6.0 16 17
r 0.85408 2 3 cbr 210 ------- 2 1.0 6.0 13 13
h 0.85408 3 7 cbr 210 ------- 2 1.0 6.0 13 13
+ 0.86048 3 7 cbr 210 ------- 2 1.0 6.0 12 12
- 0.86048 3 7 cbr 210 ------- 2 1.0 6.0 12 12
d 0.860484 5 7 cbr 210 ------- 2 1.0 6.0 12 12
d 0.860484 4 7 cbr 210 ------- 2 1.0 6.0 12 12
r 0.866884 7 6 cbr 210 ------- 2 1.0 6.0 11 11
+ 0.8712 1 2 cbr 210 ------- 2 1.0 6.0 17 18
- 0.8712 1 2 cbr 210 ------- 2 1.0 6.0 17 18
r 0.88288 1 2 cbr 210 ------- 2 1.0 6.0 17 18
+ 0.88288 2 3 cbr 210 ------- 2 1.0 6.0 17 18
- 0.88288 2 3 cbr 210 ------- 2 1.0 6.0 17 18
r 0.88768 2 3 cbr 210 ------- 2 1.0 6.0 14 14
h 0.88768 3 7 cbr 210 ------- 2 1.0 6.0 14 14
+ 0.89408 3 7 cbr 210 ------- 2 1.0 6.0 13 13
- 0.89408 3 7 cbr 210 ------- 2 1.0 6.0 13 13
d 0.894084 5 7 cbr 210 ------- 2 1.0 6.0 13 13
d 0.894084 4 7 cbr 210 ------- 2 1.0 6.0 13 13
r 0.900484 7 6 cbr 210 ------- 2 1.0 6.0 12 12
+ 0.9048 1 2 cbr 210 ------- 2 1.0 6.0 18 19
- 0.9048 1 2 cbr 210 ------- 2 1.0 6.0 18 19
r 0.911387 2 3 tcp 40 ------- 1 0.0 4.0 0 15
h 0.911387 3 7 tcp 40 ------- 1 0.0 4.0 0 15
r 0.91648 1 2 cbr 210 ------- 2 1.0 6.0 18 19
+ 0.91648 2 3 cbr 210 ------- 2 1.0 6.0 18 19
- 0.91648 2 3 cbr 210 ------- 2 1.0 6.0 18 19
r 0.92128 2 3 cbr 210 ------- 2 1.0 6.0 15 16
h 0.92128 3 7 cbr 210 ------- 2 1.0 6.0 15 16
+ 0.92768 3 7 cbr 210 ------- 2 1.0 6.0 14 14
- 0.92768 3 7 cbr 210 ------- 2 1.0 6.0 14 14
d 0.927684 5 7 cbr 210 ------- 2 1.0 6.0 14 14
d 0.927684 4 7 cbr 210 ------- 2 1.0 6.0 14 14
r 0.934084 7 6 cbr 210 ------- 2 1.0 6.0 13 13
+ 0.9384 1 2 cbr 210 ------- 2 1.0 6.0 19 20
- 0.9384 1 2 cbr 210 ------- 2 1.0 6.0 19 20
r 0.95008 1 2 cbr 210 ------- 2 1.0 6.0 19 20
+ 0.95008 2 3 cbr 210 ------- 2 1.0 6.0 19 20
- 0.95008 2 3 cbr 210 ------- 2 1.0 6.0 19 20
+ 0.951387 3 7 tcp 40 ------- 1 0.0 4.0 0 15
- 0.951387 3 7 tcp 40 ------- 1 0.0 4.0 0 15
d 0.951391 6 7 tcp 40 ------- 1 0.0 4.0 0 15
d 0.951391 5 7 tcp 40 ------- 1 0.0 4.0 0 15
r 0.95488 2 3 cbr 210 ------- 2 1.0 6.0 16 17
h 0.95488 3 7 cbr 210 ------- 2 1.0 6.0 16 17
+ 0.96128 3 7 cbr 210 ------- 2 1.0 6.0 15 16
- 0.96128 3 7 cbr 210 ------- 2 1.0 6.0 15 16
d 0.961284 5 7 cbr 210 ------- 2 1.0 6.0 15 16
d 0.961284 4 7 cbr 210 ------- 2 1.0 6.0 15 16
r 0.967684 7 6 cbr 210 ------- 2 1.0 6.0 14 14
+ 0.972 1 2 cbr 210 ------- 2 1.0 6.0 20 21
- 0.972 1 2 cbr 210 ------- 2 1.0 6.0 20 21
r 0.98368 1 2 cbr 210 ------- 2 1.0 6.0 20 21
+ 0.98368 2 3 cbr 210 ------- 2 1.0 6.0 20 21
- 0.98368 2 3 cbr 210 ------- 2 1.0 6.0 20 21
r 0.98848 2 3 cbr 210 ------- 2 1.0 6.0 17 18
h 0.98848 3 7 cbr 210 ------- 2 1.0 6.0 17 18
r 0.991391 7 4 tcp 40 ------- 1 0.0 4.0 0 15
h 0.991391 4 7 ack 40 ------- 1 4.0 0.0 0 22
+ 0.99488 3 7 cbr 210 ------- 2 1.0 6.0 16 17
- 0.99488 3 7 cbr 210 ------- 2 1.0 6.0 16 17
d 0.994884 5 7 cbr 210 ------- 2 1.0 6.0 16 17
d 0.994884 4 7 cbr 210 ------- 2 1.0 6.0 16 17
r 1.001284 7 6 cbr 210 ------- 2 1.0 6.0 15 16
+ 1.0056 1 2 cbr 210 ------- 2 1.0 6.0 21 23
- 1.0056 1 2 cbr 210 ------- 2 1.0 6.0 21 23
r 1.01728 1 2 cbr 210 ------- 2 1.0 6.0 21 23
+ 1.01728 2 3 cbr 210 ------- 2 1.0 6.0 21 23
- 1.01728 2 3 cbr 210 ------- 2 1.0 6.0 21 23
r 1.02208 2 3 cbr 210 ------- 2 1.0 6.0 18 19
h 1.02208 3 7 cbr 210 ------- 2 1.0 6.0 18 19
+ 1.02848 3 7 cbr 210 ------- 2 1.0 6.0 17 18
- 1.02848 3 7 cbr 210 ------- 2 1.0 6.0 17 18
d 1.028484 5 7 cbr 210 ------- 2 1.0 6.0 17 18
d 1.028484 4 7 cbr 210 ------- 2 1.0 6.0 17 18
+ 1.031391 4 7 ack 40 ------- 1 4.0 0.0 0 22
- 1.031391 4 7 ack 40 ------- 1 4.0 0.0 0 22
d 1.031395 6 7 ack 40 ------- 1 4.0 0.0 0 22
d 1.031395 5 7 ack 40 ------- 1 4.0 0.0 0 22
r 1.034884 7 6 cbr 210 ------- 2 1.0 6.0 16 17
+ 1.0392 1 2 cbr 210 ------- 2 1.0 6.0 22 24
- 1.0392 1 2 cbr 210 ------- 2 1.0 6.0 22 24
r 1.05088 1 2 cbr 210 ------- 2 1.0 6.0 22 24
+ 1.05088 2 3 cbr 210 ------- 2 1.0 6.0 22 24
- 1.05088 2 3 cbr 210 ------- 2 1.0 6.0 22 24
r 1.05568 2 3 cbr 210 ------- 2 1.0 6.0 19 20
h 1.05568 3 7 cbr 210 ------- 2 1.0 6.0 19 20
+ 1.06208 3 7 cbr 210 ------- 2 1.0 6.0 18 19
- 1.06208 3 7 cbr 210 ------- 2 1.0 6.0 18 19
d 1.062084 5 7 cbr 210 ------- 2 1.0 6.0 18 19
d 1.062084 4 7 cbr 210 ------- 2 1.0 6.0 18 19
r 1.068484 7 6 cbr 210 ------- 2 1.0 6.0 17 18
r 1.071395 7 3 ack 40 ------- 1 4.0 0.0 0 22
+ 1.071395 3 2 ack 40 ------- 1 4.0 0.0 0 22
- 1.071395 3 2 ack 40 ------- 1 4.0 0.0 0 22
+ 1.0728 1 2 cbr 210 ------- 2 1.0 6.0 23 25
- 1.0728 1 2 cbr 210 ------- 2 1.0 6.0 23 25
r 1.08448 1 2 cbr 210 ------- 2 1.0 6.0 23 25
+ 1.08448 2 3 cbr 210 ------- 2 1.0 6.0 23 25
- 1.08448 2 3 cbr 210 ------- 2 1.0 6.0 23 25
r 1.08928 2 3 cbr 210 ------- 2 1.0 6.0 20 21
h 1.08928 3 7 cbr 210 ------- 2 1.0 6.0 20 21
+ 1.09568 3 7 cbr 210 ------- 2 1.0 6.0 19 20
- 1.09568 3 7 cbr 210 ------- 2 1.0 6.0 19 20
d 1.095684 5 7 cbr 210 ------- 2 1.0 6.0 19 20
d 1.095684 4 7 cbr 210 ------- 2 1.0 6.0 19 20
r 1.102084 7 6 cbr 210 ------- 2 1.0 6.0 18 19
+ 1.1064 1 2 cbr 210 ------- 2 1.0 6.0 24 26
- 1.1064 1 2 cbr 210 ------- 2 1.0 6.0 24 26
r 1.11808 1 2 cbr 210 ------- 2 1.0 6.0 24 26
+ 1.11808 2 3 cbr 210 ------- 2 1.0 6.0 24 26
- 1.11808 2 3 cbr 210 ------- 2 1.0 6.0 24 26
r 1.12288 2 3 cbr 210 ------- 2 1.0 6.0 21 23
h 1.12288 3 7 cbr 210 ------- 2 1.0 6.0 21 23
+ 1.12928 3 7 cbr 210 ------- 2 1.0 6.0 20 21
- 1.12928 3 7 cbr 210 ------- 2 1.0 6.0 20 21
d 1.129284 5 7 cbr 210 ------- 2 1.0 6.0 20 21
d 1.129284 4 7 cbr 210 ------- 2 1.0 6.0 20 21
r 1.135684 7 6 cbr 210 ------- 2 1.0 6.0 19 20
+ 1.14 1 2 cbr 210 ------- 2 1.0 6.0 25 27
- 1.14 1 2 cbr 210 ------- 2 1.0 6.0 25 27
r 1.15168 1 2 cbr 210 ------- 2 1.0 6.0 25 27
+ 1.15168 2 3 cbr 210 ------- 2 1.0 6.0 25 27
- 1.15168 2 3 cbr 210 ------- 2 1.0 6.0 25 27
r 1.15648 2 3 cbr 210 ------- 2 1.0 6.0 22 24
h 1.15648 3 7 cbr 210 ------- 2 1.0 6.0 22 24
+ 1.16288 3 7 cbr 210 ------- 2 1.0 6.0 21 23
- 1.16288 3 7 cbr 210 ------- 2 1.0 6.0 21 23
d 1.162884 5 7 cbr 210 ------- 2 1.0 6.0 21 23
d 1.162884 4 7 cbr 210 ------- 2 1.0 6.0 21 23
r 1.169284 7 6 cbr 210 ------- 2 1.0 6.0 20 21
r 1.172461 3 2 ack 40 ------- 1 4.0 0.0 0 22
+ 1.172461 2 0 ack 40 ------- 1 4.0 0.0 0 22
- 1.172461 2 0 ack 40 ------- 1 4.0 0.0 0 22
+ 1.1736 1 2 cbr 210 ------- 2 1.0 6.0 26 28
- 1.1736 1 2 cbr 210 ------- 2 1.0 6.0 26 28
r 1.182781 2 0 ack 40 ------- 1 4.0 0.0 0 22
+ 1.182781 0 2 tcp 592 ------- 1 0.0 4.0 1 29
- 1.182781 0 2 tcp 592 ------- 1 0.0 4.0 1 29
+ 1.182781 0 2 tcp 592 ------- 1 0.0 4.0 2 30
r 1.18528 1 2 cbr 210 ------- 2 1.0 6.0 26 28
+ 1.18528 2 3 cbr 210 ------- 2 1.0 6.0 26 28
- 1.18528 2 3 cbr 210 ------- 2 1.0 6.0 26 28
- 1.187517 0 2 tcp 592 ------- 1 0.0 4.0 2 30
r 1.19008 2 3 cbr 210 ------- 2 1.0 6.0 23 25
h 1.19008 3 7 cbr 210 ------- 2 1.0 6.0 23 25
+ 1.19648 3 7 cbr 210 ------- 2 1.0 6.0 22 24
- 1.19648 3 7 cbr 210 ------- 2 1.0 6.0 22 24
d 1.196484 5 7 cbr 210 ------- 2 1.0 6.0 22 24
d 1.196484 4 7 cbr 210 ------- 2 1.0 6.0 22 24
r 1.197517 0 2 tcp 592 ------- 1 0.0 4.0 1 29
+ 1.197517 2 3 tcp 592 ------- 1 0.0 4.0 1 29
- 1.197517 2 3 tcp 592 ------- 1 0.0 4.0 1 29
r 1.202253 0 2 tcp 592 ------- 1 0.0 4.0 2 30
+ 1.202253 2 3 tcp 592 ------- 1 0.0 4.0 2 30
r 1.202884 7 6 cbr 210 ------- 2 1.0 6.0 21 23
+ 1.2072 1 2 cbr 210 ------- 2 1.0 6.0 27 31
- 1.2072 1 2 cbr 210 ------- 2 1.0 6.0 27 31
- 1.213304 2 3 tcp 592 ------- 1 0.0 4.0 2 30
r 1.21888 1 2 cbr 210 ------- 2 1.0 6.0 27 31
+ 1.21888 2 3 cbr 210 ------- 2 1.0 6.0 27 31
r 1.22368 2 3 cbr 210 ------- 2 1.0 6.0 24 26
h 1.22368 3 7 cbr 210 ------- 2 1.0 6.0 24 26
- 1.229091 2 3 cbr 210 ------- 2 1.0 6.0 27 31
+ 1.23008 3 7 cbr 210 ------- 2 1.0 6.0 23 25
- 1.23008 3 7 cbr 210 ------- 2 1.0 6.0 23 25
d 1.230084 5 7 cbr 210 ------- 2 1.0 6.0 23 25
d 1.230084 4 7 cbr 210 ------- 2 1.0 6.0 23 25
r 1.236484 7 6 cbr 210 ------- 2 1.0 6.0 22 24
+ 1.2408 1 2 cbr 210 ------- 2 1.0 6.0 28 32
- 1.2408 1 2 cbr 210 ------- 2 1.0 6.0 28 32
r 1.25248 1 2 cbr 210 ------- 2 1.0 6.0 28 32
+ 1.25248 2 3 cbr 210 ------- 2 1.0 6.0 28 32
- 1.25248 2 3 cbr 210 ------- 2 1.0 6.0 28 32
r 1.25728 2 3 cbr 210 ------- 2 1.0 6.0 25 27
h 1.25728 3 7 cbr 210 ------- 2 1.0 6.0 25 27
+ 1.26368 3 7 cbr 210 ------- 2 1.0 6.0 24 26
- 1.26368 3 7 cbr 210 ------- 2 1.0 6.0 24 26
d 1.263684 5 7 cbr 210 ------- 2 1.0 6.0 24 26
d 1.263684 4 7 cbr 210 ------- 2 1.0 6.0 24 26
r 1.270084 7 6 cbr 210 ------- 2 1.0 6.0 23 25
+ 1.2744 1 2 cbr 210 ------- 2 1.0 6.0 29 33
- 1.2744 1 2 cbr 210 ------- 2 1.0 6.0 29 33
r 1.28608 1 2 cbr 210 ------- 2 1.0 6.0 29 33
+ 1.28608 2 3 cbr 210 ------- 2 1.0 6.0 29 33
- 1.28608 2 3 cbr 210 ------- 2 1.0 6.0 29 33
r 1.29088 2 3 cbr 210 ------- 2 1.0 6.0 26 28
h 1.29088 3 7 cbr 210 ------- 2 1.0 6.0 26 28
+ 1.29728 3 7 cbr 210 ------- 2 1.0 6.0 25 27
- 1.29728 3 7 cbr 210 ------- 2 1.0 6.0 25 27
d 1.297284 5 7 cbr 210 ------- 2 1.0 6.0 25 27
d 1.297284 4 7 cbr 210 ------- 2 1.0 6.0 25 27
r 1.303684 7 6 cbr 210 ------- 2 1.0 6.0 24 26
+ 1.308 1 2 cbr 210 ------- 2 1.0 6.0 30 34
- 1.308 1 2 cbr 210 ------- 2 1.0 6.0 30 34
r 1.313304 2 3 tcp 592 ------- 1 0.0 4.0 1 29
h 1.313304 3 7 tcp 592 ------- 1 0.0 4.0 1 29
r 1.31968 1 2 cbr 210 ------- 2 1.0 6.0 30 34
+ 1.31968 2 3 cbr 210 ------- 2 1.0 6.0 30 34
- 1.31968 2 3 cbr 210 ------- 2 1.0 6.0 30 34
r 1.329091 2 3 tcp 592 ------- 1 0.0 4.0 2 30
h 1.329091 3 7 tcp 592 ------- 1 0.0 4.0 2 30
+ 1.33088 3 7 cbr 210 ------- 2 1.0 6.0 26 28
- 1.33088 3 7 cbr 210 ------- 2 1.0 6.0 26 28
d 1.330884 5 7 cbr 210 ------- 2 1.0 6.0 26 28
d 1.330884 4 7 cbr 210 ------- 2 1.0 6.0 26 28
r 1.334691 2 3 cbr 210 ------- 2 1.0 6.0 27 31
h 1.334691 3 7 cbr 210 ------- 2 1.0 6.0 27 31
r 1.337284 7 6 cbr 210 ------- 2 1.0 6.0 25 27
+ 1.3416 1 2 cbr 210 ------- 2 1.0 6.0 31 35
- 1.3416 1 2 cbr 210 ------- 2 1.0 6.0 31 35
r 1.35328 1 2 cbr 210 ------- 2 1.0 6.0 31 35
+ 1.35328 2 3 cbr 210 ------- 2 1.0 6.0 31 35
- 1.35328 2 3 cbr 210 ------- 2 1.0 6.0 31 35
+ 1.353304 3 7 tcp 592 ------- 1 0.0 4.0 1 29
- 1.353304 3 7 tcp 592 ------- 1 0.0 4.0 1 29
d 1.353308 6 7 tcp 592 ------- 1 0.0 4.0 1 29
d 1.353308 5 7 tcp 592 ------- 1 0.0 4.0 1 29
r 1.35808 2 3 cbr 210 ------- 2 1.0 6.0 28 32
h 1.35808 3 7 cbr 210 ------- 2 1.0 6.0 28 32
+ 1.369091 3 7 tcp 592 ------- 1 0.0 4.0 2 30
- 1.369091 3 7 tcp 592 ------- 1 0.0 4.0 2 30
d 1.369095 6 7 tcp 592 ------- 1 0.0 4.0 2 30
d 1.369095 5 7 tcp 592 ------- 1 0.0 4.0 2 30
r 1.370884 7 6 cbr 210 ------- 2 1.0 6.0 26 28
+ 1.374691 3 7 cbr 210 ------- 2 1.0 6.0 27 31
- 1.374691 3 7 cbr 210 ------- 2 1.0 6.0 27 31
d 1.374695 5 7 cbr 210 ------- 2 1.0 6.0 27 31
d 1.374695 4 7 cbr 210 ------- 2 1.0 6.0 27 31
+ 1.3752 1 2 cbr 210 ------- 2 1.0 6.0 32 36
- 1.3752 1 2 cbr 210 ------- 2 1.0 6.0 32 36
r 1.38688 1 2 cbr 210 ------- 2 1.0 6.0 32 36
+ 1.38688 2 3 cbr 210 ------- 2 1.0 6.0 32 36
- 1.38688 2 3 cbr 210 ------- 2 1.0 6.0 32 36
r 1.39168 2 3 cbr 210 ------- 2 1.0 6.0 29 33
h 1.39168 3 7 cbr 210 ------- 2 1.0 6.0 29 33
r 1.393308 7 4 tcp 592 ------- 1 0.0 4.0 1 29
+ 1.39808 3 7 cbr 210 ------- 2 1.0 6.0 28 32
- 1.39808 3 7 cbr 210 ------- 2 1.0 6.0 28 32
d 1.398084 5 7 cbr 210 ------- 2 1.0 6.0 28 32
d 1.398084 4 7 cbr 210 ------- 2 1.0 6.0 28 32
+ 1.4088 1 2 cbr 210 ------- 2 1.0 6.0 33 37
- 1.4088 1 2 cbr 210 ------- 2 1.0 6.0 33 37
r 1.409095 7 4 tcp 592 ------- 1 0.0 4.0 2 30
h 1.409095 4 7 ack 40 ------- 1 4.0 0.0 2 38
r 1.414695 7 6 cbr 210 ------- 2 1.0 6.0 27 31
r 1.42048 1 2 cbr 210 ------- 2 1.0 6.0 33 37
+ 1.42048 2 3 cbr 210 ------- 2 1.0 6.0 33 37
- 1.42048 2 3 cbr 210 ------- 2 1.0 6.0 33 37
r 1.42528 2 3 cbr 210 ------- 2 1.0 6.0 30 34
h 1.42528 3 7 cbr 210 ------- 2 1.0 6.0 30 34
+ 1.43168 3 7 cbr 210 ------- 2 1.0 6.0 29 33
- 1.43168 3 7 cbr 210 ------- 2 1.0 6.0 29 33
d 1.431684 5 7 cbr 210 ------- 2 1.0 6.0 29 33
d 1.431684 4 7 cbr 210 ------- 2 1.0 6.0 29 33
r 1.438084 7 6 cbr 210 ------- 2 1.0 6.0 28 32
+ 1.4424 1 2 cbr 210 ------- 2 1.0 6.0 34 39
- 1.4424 1 2 cbr 210 ------- 2 1.0 6.0 34 39
+ 1.449095 4 7 ack 40 ------- 1 4.0 0.0 2 38
- 1.449095 4 7 ack 40 ------- 1 4.0 0.0 2 38
d 1.449099 6 7 ack 40 ------- 1 4.0 0.0 2 38
d 1.449099 5 7 ack 40 ------- 1 4.0 0.0 2 38
r 1.45408 1 2 cbr 210 ------- 2 1.0 6.0 34 39
+ 1.45408 2 3 cbr 210 ------- 2 1.0 6.0 34 39
- 1.45408 2 3 cbr 210 ------- 2 1.0 6.0 34 39
r 1.45888 2 3 cbr 210 ------- 2 1.0 6.0 31 35
h 1.45888 3 7 cbr 210 ------- 2 1.0 6.0 31 35
+ 1.46528 3 7 cbr 210 ------- 2 1.0 6.0 30 34
- 1.46528 3 7 cbr 210 ------- 2 1.0 6.0 30 34
d 1.465284 5 7 cbr 210 ------- 2 1.0 6.0 30 34
d 1.465284 4 7 cbr 210 ------- 2 1.0 6.0 30 34
r 1.471684 7 6 cbr 210 ------- 2 1.0 6.0 29 33
+ 1.476 1 2 cbr 210 ------- 2 1.0 6.0 35 40
- 1.476 1 2 cbr 210 ------- 2 1.0 6.0 35 40
r 1.48768 1 2 cbr 210 ------- 2 1.0 6.0 35 40
+ 1.48768 2 3 cbr 210 ------- 2 1.0 6.0 35 40
- 1.48768 2 3 cbr 210 ------- 2 1.0 6.0 35 40
r 1.489099 7 3 ack 40 ------- 1 4.0 0.0 2 38
+ 1.489099 3 2 ack 40 ------- 1 4.0 0.0 2 38
- 1.489099 3 2 ack 40 ------- 1 4.0 0.0 2 38
r 1.49248 2 3 cbr 210 ------- 2 1.0 6.0 32 36
h 1.49248 3 7 cbr 210 ------- 2 1.0 6.0 32 36
+ 1.49888 3 7 cbr 210 ------- 2 1.0 6.0 31 35
- 1.49888 3 7 cbr 210 ------- 2 1.0 6.0 31 35
d 1.498884 5 7 cbr 210 ------- 2 1.0 6.0 31 35
d 1.498884 4 7 cbr 210 ------- 2 1.0 6.0 31 35
r 1.505284 7 6 cbr 210 ------- 2 1.0 6.0 30 34
+ 1.5096 1 2 cbr 210 ------- 2 1.0 6.0 36 41
- 1.5096 1 2 cbr 210 ------- 2 1.0 6.0 36 41
r 1.52128 1 2 cbr 210 ------- 2 1.0 6.0 36 41
+ 1.52128 2 3 cbr 210 ------- 2 1.0 6.0 36 41
- 1.52128 2 3 cbr 210 ------- 2 1.0 6.0 36 41
r 1.52608 2 3 cbr 210 ------- 2 1.0 6.0 33 37
h 1.52608 3 7 cbr 210 ------- 2 1.0 6.0 33 37
+ 1.53248 3 7 cbr 210 ------- 2 1.0 6.0 32 36
- 1.53248 3 7 cbr 210 ------- 2 1.0 6.0 32 36
d 1.532484 5 7 cbr 210 ------- 2 1.0 6.0 32 36
d 1.532484 4 7 cbr 210 ------- 2 1.0 6.0 32 36
r 1.538884 7 6 cbr 210 ------- 2 1.0 6.0 31 35
+ 1.5432 1 2 cbr 210 ------- 2 1.0 6.0 37 42
- 1.5432 1 2 cbr 210 ------- 2 1.0 6.0 37 42
r 1.55488 1 2 cbr 210 ------- 2 1.0 6.0 37 42
+ 1.55488 2 3 cbr 210 ------- 2 1.0 6.0 37 42
- 1.55488 2 3 cbr 210 ------- 2 1.0 6.0 37 42
r 1.55968 2 3 cbr 210 ------- 2 1.0 6.0 34 39
h 1.55968 3 7 cbr 210 ------- 2 1.0 6.0 34 39
+ 1.56608 3 7 cbr 210 ------- 2 1.0 6.0 33 37
- 1.56608 3 7 cbr 210 ------- 2 1.0 6.0 33 37
d 1.566084 5 7 cbr 210 ------- 2 1.0 6.0 33 37
d 1.566084 4 7 cbr 210 ------- 2 1.0 6.0 33 37
r 1.572484 7 6 cbr 210 ------- 2 1.0 6.0 32 36
+ 1.5768 1 2 cbr 210 ------- 2 1.0 6.0 38 43
- 1.5768 1 2 cbr 210 ------- 2 1.0 6.0 38 43
r 1.58848 1 2 cbr 210 ------- 2 1.0 6.0 38 43
+ 1.58848 2 3 cbr 210 ------- 2 1.0 6.0 38 43
- 1.58848 2 3 cbr 210 ------- 2 1.0 6.0 38 43
r 1.590165 3 2 ack 40 ------- 1 4.0 0.0 2 38
+ 1.590165 2 0 ack 40 ------- 1 4.0 0.0 2 38
- 1.590165 2 0 ack 40 ------- 1 4.0 0.0 2 38
r 1.59328 2 3 cbr 210 ------- 2 1.0 6.0 35 40
h 1.59328 3 7 cbr 210 ------- 2 1.0 6.0 35 40
+ 1.59968 3 7 cbr 210 ------- 2 1.0 6.0 34 39
- 1.59968 3 7 cbr 210 ------- 2 1.0 6.0 34 39
d 1.599684 5 7 cbr 210 ------- 2 1.0 6.0 34 39
d 1.599684 4 7 cbr 210 ------- 2 1.0 6.0 34 39
r 1.600485 2 0 ack 40 ------- 1 4.0 0.0 2 38
+ 1.600485 0 2 tcp 592 ------- 1 0.0 4.0 3 44
- 1.600485 0 2 tcp 592 ------- 1 0.0 4.0 3 44
+ 1.600485 0 2 tcp 592 ------- 1 0.0 4.0 4 45
+ 1.600485 0 2 tcp 592 ------- 1 0.0 4.0 5 46
- 1.605221 0 2 tcp 592 ------- 1 0.0 4.0 4 45
r 1.606084 7 6 cbr 210 ------- 2 1.0 6.0 33 37
- 1.609957 0 2 tcp 592 ------- 1 0.0 4.0 5 46
+ 1.6104 1 2 cbr 210 ------- 2 1.0 6.0 39 47
- 1.6104 1 2 cbr 210 ------- 2 1.0 6.0 39 47
r 1.615221 0 2 tcp 592 ------- 1 0.0 4.0 3 44
+ 1.615221 2 3 tcp 592 ------- 1 0.0 4.0 3 44
- 1.615221 2 3 tcp 592 ------- 1 0.0 4.0 3 44
r 1.619957 0 2 tcp 592 ------- 1 0.0 4.0 4 45
+ 1.619957 2 3 tcp 592 ------- 1 0.0 4.0 4 45
r 1.62208 1 2 cbr 210 ------- 2 1.0 6.0 39 47
+ 1.62208 2 3 cbr 210 ------- 2 1.0 6.0 39 47
r 1.624693 0 2 tcp 592 ------- 1 0.0 4.0 5 46
+ 1.624693 2 3 tcp 592 ------- 1 0.0 4.0 5 46
r 1.62688 2 3 cbr 210 ------- 2 1.0 6.0 36 41
h 1.62688 3 7 cbr 210 ------- 2 1.0 6.0 36 41
- 1.631008 2 3 tcp 592 ------- 1 0.0 4.0 4 45
+ 1.63328 3 7 cbr 210 ------- 2 1.0 6.0 35 40
- 1.63328 3 7 cbr 210 ------- 2 1.0 6.0 35 40
d 1.633284 5 7 cbr 210 ------- 2 1.0 6.0 35 40
d 1.633284 4 7 cbr 210 ------- 2 1.0 6.0 35 40
r 1.639684 7 6 cbr 210 ------- 2 1.0 6.0 34 39
+ 1.644 1 2 cbr 210 ------- 2 1.0 6.0 40 48
- 1.644 1 2 cbr 210 ------- 2 1.0 6.0 40 48
- 1.646795 2 3 cbr 210 ------- 2 1.0 6.0 39 47
- 1.652395 2 3 tcp 592 ------- 1 0.0 4.0 5 46
r 1.65568 1 2 cbr 210 ------- 2 1.0 6.0 40 48
+ 1.65568 2 3 cbr 210 ------- 2 1.0 6.0 40 48
r 1.66048 2 3 cbr 210 ------- 2 1.0 6.0 37 42
h 1.66048 3 7 cbr 210 ------- 2 1.0 6.0 37 42
+ 1.66688 3 7 cbr 210 ------- 2 1.0 6.0 36 41
- 1.66688 3 7 cbr 210 ------- 2 1.0 6.0 36 41
d 1.666884 5 7 cbr 210 ------- 2 1.0 6.0 36 41
d 1.666884 4 7 cbr 210 ------- 2 1.0 6.0 36 41
- 1.668181 2 3 cbr 210 ------- 2 1.0 6.0 40 48
r 1.673284 7 6 cbr 210 ------- 2 1.0 6.0 35 40
+ 1.6776 1 2 cbr 210 ------- 2 1.0 6.0 41 49
- 1.6776 1 2 cbr 210 ------- 2 1.0 6.0 41 49
r 1.68928 1 2 cbr 210 ------- 2 1.0 6.0 41 49
+ 1.68928 2 3 cbr 210 ------- 2 1.0 6.0 41 49
- 1.68928 2 3 cbr 210 ------- 2 1.0 6.0 41 49
r 1.69408 2 3 cbr 210 ------- 2 1.0 6.0 38 43
h 1.69408 3 7 cbr 210 ------- 2 1.0 6.0 38 43
+ 1.70048 3 7 cbr 210 ------- 2 1.0 6.0 37 42
- 1.70048 3 7 cbr 210 ------- 2 1.0 6.0 37 42
d 1.700484 5 7 cbr 210 ------- 2 1.0 6.0 37 42
d 1.700484 4 7 cbr 210 ------- 2 1.0 6.0 37 42
r 1.706884 7 6 cbr 210 ------- 2 1.0 6.0 36 41
+ 1.7112 1 2 cbr 210 ------- 2 1.0 6.0 42 50
- 1.7112 1 2 cbr 210 ------- 2 1.0 6.0 42 50
r 1.72288 1 2 cbr 210 ------- 2 1.0 6.0 42 50
+ 1.72288 2 3 cbr 210 ------- 2 1.0 6.0 42 50
- 1.72288 2 3 cbr 210 ------- 2 1.0 6.0 42 50
r 1.731008 2 3 tcp 592 ------- 1 0.0 4.0 3 44
h 1.731008 3 7 tcp 592 ------- 1 0.0 4.0 3 44
+ 1.73408 3 7 cbr 210 ------- 2 1.0 6.0 38 43
- 1.73408 3 7 cbr 210 ------- 2 1.0 6.0 38 43
d 1.734084 5 7 cbr 210 ------- 2 1.0 6.0 38 43
d 1.734084 4 7 cbr 210 ------- 2 1.0 6.0 38 43
r 1.740484 7 6 cbr 210 ------- 2 1.0 6.0 37 42
+ 1.7448 1 2 cbr 210 ------- 2 1.0 6.0 43 51
- 1.7448 1 2 cbr 210 ------- 2 1.0 6.0 43 51
r 1.746795 2 3 tcp 592 ------- 1 0.0 4.0 4 45
h 1.746795 3 7 tcp 592 ------- 1 0.0 4.0 4 45
r 1.752395 2 3 cbr 210 ------- 2 1.0 6.0 39 47
h 1.752395 3 7 cbr 210 ------- 2 1.0 6.0 39 47
r 1.75648 1 2 cbr 210 ------- 2 1.0 6.0 43 51
+ 1.75648 2 3 cbr 210 ------- 2 1.0 6.0 43 51
- 1.75648 2 3 cbr 210 ------- 2 1.0 6.0 43 51
r 1.768181 2 3 tcp 592 ------- 1 0.0 4.0 5 46
h 1.768181 3 7 tcp 592 ------- 1 0.0 4.0 5 46
+ 1.771008 3 7 tcp 592 ------- 1 0.0 4.0 3 44
- 1.771008 3 7 tcp 592 ------- 1 0.0 4.0 3 44
d 1.771012 6 7 tcp 592 ------- 1 0.0 4.0 3 44
d 1.771012 5 7 tcp 592 ------- 1 0.0 4.0 3 44
r 1.773781 2 3 cbr 210 ------- 2 1.0 6.0 40 48
h 1.773781 3 7 cbr 210 ------- 2 1.0 6.0 40 48
r 1.774084 7 6 cbr 210 ------- 2 1.0 6.0 38 43
+ 1.7784 1 2 cbr 210 ------- 2 1.0 6.0 44 52
- 1.7784 1 2 cbr 210 ------- 2 1.0 6.0 44 52
+ 1.786795 3 7 tcp 592 ------- 1 0.0 4.0 4 45
- 1.786795 3 7 tcp 592 ------- 1 0.0 4.0 4 45
d 1.786799 6 7 tcp 592 ------- 1 0.0 4.0 4 45
d 1.786799 5 7 tcp 592 ------- 1 0.0 4.0 4 45
r 1.79008 1 2 cbr 210 ------- 2 1.0 6.0 44 52
+ 1.79008 2 3 cbr 210 ------- 2 1.0 6.0 44 52
- 1.79008 2 3 cbr 210 ------- 2 1.0 6.0 44 52
+ 1.792395 3 7 cbr 210 ------- 2 1.0 6.0 39 47
- 1.792395 3 7 cbr 210 ------- 2 1.0 6.0 39 47
d 1.792399 5 7 cbr 210 ------- 2 1.0 6.0 39 47
d 1.792399 4 7 cbr 210 ------- 2 1.0 6.0 39 47
r 1.79488 2 3 cbr 210 ------- 2 1.0 6.0 41 49
h 1.79488 3 7 cbr 210 ------- 2 1.0 6.0 41 49
+ 1.808181 3 7 tcp 592 ------- 1 0.0 4.0 5 46
- 1.808181 3 7 tcp 592 ------- 1 0.0 4.0 5 46
d 1.808185 6 7 tcp 592 ------- 1 0.0 4.0 5 46
d 1.808185 5 7 tcp 592 ------- 1 0.0 4.0 5 46
r 1.811012 7 4 tcp 592 ------- 1 0.0 4.0 3 44
+ 1.812 1 2 cbr 210 ------- 2 1.0 6.0 45 53
- 1.812 1 2 cbr 210 ------- 2 1.0 6.0 45 53
+ 1.813781 3 7 cbr 210 ------- 2 1.0 6.0 40 48
- 1.813781 3 7 cbr 210 ------- 2 1.0 6.0 40 48
d 1.813785 5 7 cbr 210 ------- 2 1.0 6.0 40 48
d 1.813785 4 7 cbr 210 ------- 2 1.0 6.0 40 48
r 1.82368 1 2 cbr 210 ------- 2 1.0 6.0 45 53
+ 1.82368 2 3 cbr 210 ------- 2 1.0 6.0 45 53
- 1.82368 2 3 cbr 210 ------- 2 1.0 6.0 45 53
r 1.826799 7 4 tcp 592 ------- 1 0.0 4.0 4 45
h 1.826799 4 7 ack 40 ------- 1 4.0 0.0 4 54
r 1.82848 2 3 cbr 210 ------- 2 1.0 6.0 42 50
h 1.82848 3 7 cbr 210 ------- 2 1.0 6.0 42 50
r 1.832399 7 6 cbr 210 ------- 2 1.0 6.0 39 47
+ 1.83488 3 7 cbr 210 ------- 2 1.0 6.0 41 49
- 1.83488 3 7 cbr 210 ------- 2 1.0 6.0 41 49
d 1.834884 5 7 cbr 210 ------- 2 1.0 6.0 41 49
d 1.834884 4 7 cbr 210 ------- 2 1.0 6.0 41 49
+ 1.8456 1 2 cbr 210 ------- 2 1.0 6.0 46 55
- 1.8456 1 2 cbr 210 ------- 2 1.0 6.0 46 55
r 1.848185 7 4 tcp 592 ------- 1 0.0 4.0 5 46
r 1.853785 7 6 cbr 210 ------- 2 1.0 6.0 40 48
r 1.85728 1 2 cbr 210 ------- 2 1.0 6.0 46 55
+ 1.85728 2 3 cbr 210 ------- 2 1.0 6.0 46 55
- 1.85728 2 3 cbr 210 ------- 2 1.0 6.0 46 55
r 1.86208 2 3 cbr 210 ------- 2 1.0 6.0 43 51
h 1.86208 3 7 cbr 210 ------- 2 1.0 6.0 43 51
+ 1.866799 4 7 ack 40 ------- 1 4.0 0.0 4 54
- 1.866799 4 7 ack 40 ------- 1 4.0 0.0 4 54
d 1.866803 6 7 ack 40 ------- 1 4.0 0.0 4 54
d 1.866803 5 7 ack 40 ------- 1 4.0 0.0 4 54
+ 1.86848 3 7 cbr 210 ------- 2 1.0 6.0 42 50
- 1.86848 3 7 cbr 210 ------- 2 1.0 6.0 42 50
d 1.868484 5 7 cbr 210 ------- 2 1.0 6.0 42 50
d 1.868484 4 7 cbr 210 ------- 2 1.0 6.0 42 50
r 1.874884 7 6 cbr 210 ------- 2 1.0 6.0 41 49
+ 1.8792 1 2 cbr 210 ------- 2 1.0 6.0 47 56
- 1.8792 1 2 cbr 210 ------- 2 1.0 6.0 47 56
r 1.89088 1 2 cbr 210 ------- 2 1.0 6.0 47 56
+ 1.89088 2 3 cbr 210 ------- 2 1.0 6.0 47 56
- 1.89088 2 3 cbr 210 ------- 2 1.0 6.0 47 56
r 1.89568 2 3 cbr 210 ------- 2 1.0 6.0 44 52
h 1.89568 3 7 cbr 210 ------- 2 1.0 6.0 44 52
+ 1.90208 3 7 cbr 210 ------- 2 1.0 6.0 43 51
- 1.90208 3 7 cbr 210 ------- 2 1.0 6.0 43 51
d 1.902084 5 7 cbr 210 ------- 2 1.0 6.0 43 51
d 1.902084 4 7 cbr 210 ------- 2 1.0 6.0 43 51
r 1.906803 7 3 ack 40 ------- 1 4.0 0.0 4 54
+ 1.906803 3 2 ack 40 ------- 1 4.0 0.0 4 54
- 1.906803 3 2 ack 40 ------- 1 4.0 0.0 4 54
r 1.908484 7 6 cbr 210 ------- 2 1.0 6.0 42 50
+ 1.9128 1 2 cbr 210 ------- 2 1.0 6.0 48 57
- 1.9128 1 2 cbr 210 ------- 2 1.0 6.0 48 57
r 1.92448 1 2 cbr 210 ------- 2 1.0 6.0 48 57
+ 1.92448 2 3 cbr 210 ------- 2 1.0 6.0 48 57
- 1.92448 2 3 cbr 210 ------- 2 1.0 6.0 48 57